<?xml version="1.0" encoding="UTF-8"?>

<!-- generated on 2024-07-06 16:38:37 by Eclipse SUMO sumo Version 1.20.0
<configuration xmlns:xsi="http://www.w3.org/2001/XMLSchema-instance" xsi:noNamespaceSchemaLocation="http://sumo.dlr.de/xsd/sumoConfiguration.xsd">

    <input>
        <net-file value="scenarios_all_static/parked_veh_scenario_4/real_world.net.xml"/>
        <route-files value="scenarios_all_static/parked_veh_scenario_4/real_world.vehicles.rou.xml"/>
        <additional-files value="scenarios_all_static/parked_veh_scenario_4/real_world.add.xml"/>
    </input>

    <output>
        <fcd-output value="scenarios_all_static/parked_veh_scenario_4/fcd.xml"/>
        <lanechange-output value="scenarios_all_static/parked_veh_scenario_4/output_lanechange.txt"/>
    </output>

    <time>
        <begin value="0"/>
        <step-length value="0.1"/>
    </time>

    <processing>
        <time-to-teleport value="-1"/>
        <lanechange.duration value="15"/>
    </processing>

    <report>
        <verbose value="true"/>
        <no-step-log value="true"/>
    </report>

</configuration>
-->

<fcd-export xmlns:xsi="http://www.w3.org/2001/XMLSchema-instance" xsi:noNamespaceSchemaLocation="http://sumo.dlr.de/xsd/fcd_file.xsd">
    <timestep time="0.00"/>
</fcd-export>
