<?xml version="1.0" encoding="UTF-8"?>

<!-- generated on 2024-06-21 14:32:49 by Eclipse SUMO sumo Version 1.20.0
<configuration xmlns:xsi="http://www.w3.org/2001/XMLSchema-instance" xsi:noNamespaceSchemaLocation="http://sumo.dlr.de/xsd/sumoConfiguration.xsd">

    <input>
        <net-file value="scenarios/conv_scenario_224/real_world.net.xml"/>
        <route-files value="scenarios/conv_scenario_224/real_world.vehicles.rou.xml"/>
        <additional-files value="scenarios/conv_scenario_224/real_world.add.xml"/>
    </input>

    <output>
        <fcd-output value="scenarios/conv_scenario_224/fcd.xml"/>
        <lanechange-output value="scenarios/conv_scenario_224/output_lanechange.txt"/>
    </output>

    <time>
        <begin value="0"/>
        <step-length value="0.1"/>
    </time>

    <processing>
        <time-to-teleport value="-1"/>
        <lanechange.duration value="15"/>
    </processing>

    <report>
        <verbose value="true"/>
        <no-step-log value="true"/>
    </report>

</configuration>
-->

<fcd-export xmlns:xsi="http://www.w3.org/2001/XMLSchema-instance" xsi:noNamespaceSchemaLocation="http://sumo.dlr.de/xsd/fcd_file.xsd">
    <timestep time="0.00"/>
    <timestep time="0.10">
        <vehicle id="201" x="5.29" y="0.30" angle="270.00" type="passenger" speed="0.00" pos="4.71" lane="E5_0" slope="0.00"/>
        <vehicle id="202" x="-2.29" y="-0.30" angle="90.00" type="passenger" speed="0.00" pos="7.71" lane="E3_0" slope="0.00"/>
    </timestep>
    <timestep time="0.20">
        <vehicle id="201" x="5.29" y="0.30" angle="270.00" type="passenger" speed="0.02" pos="4.71" lane="E5_0" slope="0.00"/>
        <vehicle id="202" x="-2.29" y="-0.30" angle="90.00" type="passenger" speed="0.02" pos="7.71" lane="E3_0" slope="0.00"/>
    </timestep>
    <timestep time="0.30">
        <vehicle id="201" x="5.28" y="0.30" angle="270.00" type="passenger" speed="0.04" pos="4.72" lane="E5_0" slope="0.00"/>
        <vehicle id="202" x="-2.28" y="-0.30" angle="90.00" type="passenger" speed="0.04" pos="7.72" lane="E3_0" slope="0.00"/>
    </timestep>
    <timestep time="0.40">
        <vehicle id="201" x="5.28" y="0.30" angle="270.00" type="passenger" speed="0.06" pos="4.72" lane="E5_0" slope="0.00"/>
        <vehicle id="202" x="-2.28" y="-0.30" angle="90.00" type="passenger" speed="0.06" pos="7.72" lane="E3_0" slope="0.00"/>
    </timestep>
    <timestep time="0.50">
        <vehicle id="201" x="5.27" y="0.30" angle="270.00" type="passenger" speed="0.08" pos="4.73" lane="E5_0" slope="0.00"/>
        <vehicle id="202" x="-2.27" y="-0.30" angle="90.00" type="passenger" speed="0.08" pos="7.73" lane="E3_0" slope="0.00"/>
    </timestep>
    <timestep time="0.60">
        <vehicle id="201" x="5.26" y="0.30" angle="270.00" type="passenger" speed="0.10" pos="4.74" lane="E5_0" slope="0.00"/>
        <vehicle id="202" x="-2.26" y="-0.30" angle="90.00" type="passenger" speed="0.09" pos="7.74" lane="E3_0" slope="0.00"/>
    </timestep>
    <timestep time="0.70">
        <vehicle id="201" x="5.25" y="0.30" angle="270.00" type="passenger" speed="0.11" pos="4.75" lane="E5_0" slope="0.00"/>
        <vehicle id="202" x="-2.25" y="-0.30" angle="90.00" type="passenger" speed="0.11" pos="7.75" lane="E3_0" slope="0.00"/>
    </timestep>
    <timestep time="0.80">
        <vehicle id="201" x="5.23" y="0.30" angle="270.00" type="passenger" speed="0.13" pos="4.77" lane="E5_0" slope="0.00"/>
        <vehicle id="202" x="-2.24" y="-0.30" angle="90.00" type="passenger" speed="0.12" pos="7.76" lane="E3_0" slope="0.00"/>
    </timestep>
    <timestep time="0.90">
        <vehicle id="201" x="5.22" y="0.30" angle="270.00" type="passenger" speed="0.15" pos="4.78" lane="E5_0" slope="0.00"/>
        <vehicle id="202" x="-2.22" y="-0.30" angle="90.00" type="passenger" speed="0.14" pos="7.78" lane="E3_0" slope="0.00"/>
    </timestep>
    <timestep time="1.00">
        <vehicle id="201" x="5.20" y="0.30" angle="270.00" type="passenger" speed="0.17" pos="4.80" lane="E5_0" slope="0.00"/>
        <vehicle id="202" x="-2.21" y="-0.30" angle="90.00" type="passenger" speed="0.16" pos="7.79" lane="E3_0" slope="0.00"/>
    </timestep>
    <timestep time="1.10">
        <vehicle id="201" x="5.18" y="0.30" angle="270.00" type="passenger" speed="0.18" pos="4.82" lane="E5_0" slope="0.00"/>
        <vehicle id="202" x="-2.19" y="-0.30" angle="90.00" type="passenger" speed="0.17" pos="7.81" lane="E3_0" slope="0.00"/>
    </timestep>
    <timestep time="1.20">
        <vehicle id="201" x="5.16" y="0.30" angle="270.00" type="passenger" speed="0.20" pos="4.84" lane="E5_0" slope="0.00"/>
        <vehicle id="202" x="-2.17" y="-0.30" angle="90.00" type="passenger" speed="0.19" pos="7.83" lane="E3_0" slope="0.00"/>
    </timestep>
    <timestep time="1.30">
        <vehicle id="201" x="5.14" y="0.30" angle="270.00" type="passenger" speed="0.22" pos="4.86" lane="E5_0" slope="0.00"/>
        <vehicle id="202" x="-2.15" y="-0.30" angle="90.00" type="passenger" speed="0.21" pos="7.85" lane="E3_0" slope="0.00"/>
    </timestep>
    <timestep time="1.40">
        <vehicle id="201" x="5.12" y="0.30" angle="270.00" type="passenger" speed="0.23" pos="4.88" lane="E5_0" slope="0.00"/>
        <vehicle id="202" x="-2.13" y="-0.30" angle="90.00" type="passenger" speed="0.22" pos="7.87" lane="E3_0" slope="0.00"/>
    </timestep>
    <timestep time="1.50">
        <vehicle id="201" x="5.09" y="0.30" angle="270.00" type="passenger" speed="0.25" pos="4.91" lane="E5_0" slope="0.00"/>
        <vehicle id="202" x="-2.11" y="-0.30" angle="90.00" type="passenger" speed="0.23" pos="7.89" lane="E3_0" slope="0.00"/>
    </timestep>
    <timestep time="1.60">
        <vehicle id="201" x="5.07" y="0.30" angle="270.00" type="passenger" speed="0.27" pos="4.93" lane="E5_0" slope="0.00"/>
        <vehicle id="202" x="-2.08" y="-0.30" angle="90.00" type="passenger" speed="0.25" pos="7.92" lane="E3_0" slope="0.00"/>
    </timestep>
    <timestep time="1.70">
        <vehicle id="201" x="5.04" y="0.30" angle="270.00" type="passenger" speed="0.29" pos="4.96" lane="E5_0" slope="0.00"/>
        <vehicle id="202" x="-2.05" y="-0.30" angle="90.00" type="passenger" speed="0.26" pos="7.95" lane="E3_0" slope="0.00"/>
    </timestep>
    <timestep time="1.80">
        <vehicle id="201" x="5.01" y="0.30" angle="270.00" type="passenger" speed="0.30" pos="4.99" lane="E5_0" slope="0.00"/>
        <vehicle id="202" x="-2.03" y="-0.30" angle="90.00" type="passenger" speed="0.28" pos="7.97" lane="E3_0" slope="0.00"/>
    </timestep>
    <timestep time="1.90">
        <vehicle id="201" x="4.98" y="0.30" angle="270.00" type="passenger" speed="0.31" pos="5.02" lane="E5_0" slope="0.00"/>
        <vehicle id="202" x="-2.00" y="-0.30" angle="90.00" type="passenger" speed="0.30" pos="8.00" lane="E3_0" slope="0.00"/>
    </timestep>
    <timestep time="2.00">
        <vehicle id="201" x="4.94" y="0.30" angle="270.00" type="passenger" speed="0.33" pos="5.06" lane="E5_0" slope="0.00"/>
        <vehicle id="202" x="-1.97" y="-0.30" angle="90.00" type="passenger" speed="0.31" pos="8.03" lane="E3_0" slope="0.00"/>
    </timestep>
    <timestep time="2.10">
        <vehicle id="201" x="4.91" y="0.30" angle="270.00" type="passenger" speed="0.35" pos="5.09" lane="E5_0" slope="0.00"/>
        <vehicle id="202" x="-1.93" y="-0.30" angle="90.00" type="passenger" speed="0.32" pos="8.07" lane="E3_0" slope="0.00"/>
    </timestep>
    <timestep time="2.20">
        <vehicle id="201" x="4.87" y="0.30" angle="270.00" type="passenger" speed="0.37" pos="5.13" lane="E5_0" slope="0.00"/>
        <vehicle id="202" x="-1.90" y="-0.30" angle="90.00" type="passenger" speed="0.33" pos="8.10" lane="E3_0" slope="0.00"/>
    </timestep>
    <timestep time="2.30">
        <vehicle id="201" x="4.83" y="0.30" angle="270.00" type="passenger" speed="0.38" pos="5.17" lane="E5_0" slope="0.00"/>
        <vehicle id="202" x="-1.87" y="-0.30" angle="90.00" type="passenger" speed="0.35" pos="8.13" lane="E3_0" slope="0.00"/>
    </timestep>
    <timestep time="2.40">
        <vehicle id="201" x="4.79" y="0.30" angle="270.00" type="passenger" speed="0.39" pos="5.21" lane="E5_0" slope="0.00"/>
        <vehicle id="202" x="-1.83" y="-0.30" angle="90.00" type="passenger" speed="0.37" pos="8.17" lane="E3_0" slope="0.00"/>
    </timestep>
    <timestep time="2.50">
        <vehicle id="201" x="4.75" y="0.30" angle="270.00" type="passenger" speed="0.41" pos="5.25" lane="E5_0" slope="0.00"/>
        <vehicle id="202" x="-1.79" y="-0.30" angle="90.00" type="passenger" speed="0.38" pos="8.21" lane="E3_0" slope="0.00"/>
    </timestep>
    <timestep time="2.60">
        <vehicle id="201" x="4.71" y="0.30" angle="270.00" type="passenger" speed="0.42" pos="5.29" lane="E5_0" slope="0.00"/>
        <vehicle id="202" x="-1.75" y="-0.30" angle="90.00" type="passenger" speed="0.40" pos="8.25" lane="E3_0" slope="0.00"/>
    </timestep>
    <timestep time="2.70">
        <vehicle id="201" x="4.67" y="0.30" angle="270.00" type="passenger" speed="0.44" pos="5.33" lane="E5_0" slope="0.00"/>
        <vehicle id="202" x="-1.71" y="-0.30" angle="90.00" type="passenger" speed="0.41" pos="8.29" lane="E3_0" slope="0.00"/>
    </timestep>
    <timestep time="2.80">
        <vehicle id="201" x="4.62" y="0.30" angle="270.00" type="passenger" speed="0.46" pos="5.38" lane="E5_0" slope="0.00"/>
        <vehicle id="202" x="-1.67" y="-0.30" angle="90.00" type="passenger" speed="0.42" pos="8.33" lane="E3_0" slope="0.00"/>
    </timestep>
    <timestep time="2.90">
        <vehicle id="201" x="4.57" y="0.30" angle="270.00" type="passenger" speed="0.47" pos="5.43" lane="E5_0" slope="0.00"/>
        <vehicle id="202" x="-1.63" y="-0.30" angle="90.00" type="passenger" speed="0.41" pos="8.37" lane="E3_0" slope="0.00"/>
    </timestep>
    <timestep time="3.00">
        <vehicle id="201" x="4.52" y="0.30" angle="270.00" type="passenger" speed="0.48" pos="5.48" lane="E5_0" slope="0.00"/>
        <vehicle id="202" x="-1.59" y="-0.30" angle="90.00" type="passenger" speed="0.41" pos="8.41" lane="E3_0" slope="0.00"/>
    </timestep>
    <timestep time="3.10">
        <vehicle id="201" x="4.48" y="0.30" angle="270.00" type="passenger" speed="0.48" pos="5.52" lane="E5_0" slope="0.00"/>
        <vehicle id="202" x="-1.54" y="-0.30" angle="90.00" type="passenger" speed="0.42" pos="8.46" lane="E3_0" slope="0.00"/>
    </timestep>
    <timestep time="3.20">
        <vehicle id="201" x="4.43" y="0.30" angle="270.00" type="passenger" speed="0.47" pos="5.57" lane="E5_0" slope="0.00"/>
        <vehicle id="202" x="-1.50" y="-0.30" angle="90.00" type="passenger" speed="0.41" pos="8.50" lane="E3_0" slope="0.00"/>
    </timestep>
    <timestep time="3.30">
        <vehicle id="201" x="4.38" y="0.30" angle="270.00" type="passenger" speed="0.48" pos="5.62" lane="E5_0" slope="0.00"/>
        <vehicle id="202" x="-1.46" y="-0.30" angle="90.00" type="passenger" speed="0.41" pos="8.54" lane="E3_0" slope="0.00"/>
    </timestep>
    <timestep time="3.40">
        <vehicle id="201" x="4.33" y="0.30" angle="270.00" type="passenger" speed="0.47" pos="5.67" lane="E5_0" slope="0.00"/>
        <vehicle id="202" x="-1.42" y="-0.30" angle="90.00" type="passenger" speed="0.42" pos="8.58" lane="E3_0" slope="0.00"/>
    </timestep>
    <timestep time="3.50">
        <vehicle id="201" x="4.29" y="0.30" angle="270.00" type="passenger" speed="0.47" pos="5.71" lane="E5_0" slope="0.00"/>
        <vehicle id="202" x="-1.38" y="-0.30" angle="90.00" type="passenger" speed="0.41" pos="8.62" lane="E3_0" slope="0.00"/>
    </timestep>
    <timestep time="3.60">
        <vehicle id="201" x="4.24" y="0.30" angle="270.00" type="passenger" speed="0.47" pos="5.76" lane="E5_0" slope="0.00"/>
        <vehicle id="202" x="-1.34" y="-0.30" angle="90.00" type="passenger" speed="0.41" pos="8.66" lane="E3_0" slope="0.00"/>
    </timestep>
    <timestep time="3.70">
        <vehicle id="201" x="4.19" y="0.30" angle="270.00" type="passenger" speed="0.48" pos="5.81" lane="E5_0" slope="0.00"/>
        <vehicle id="202" x="-1.30" y="-0.30" angle="90.00" type="passenger" speed="0.41" pos="8.70" lane="E3_0" slope="0.00"/>
    </timestep>
    <timestep time="3.80">
        <vehicle id="201" x="4.14" y="0.30" angle="270.00" type="passenger" speed="0.48" pos="5.86" lane="E5_0" slope="0.00"/>
        <vehicle id="202" x="-1.26" y="-0.30" angle="90.00" type="passenger" speed="0.41" pos="8.74" lane="E3_0" slope="0.00"/>
    </timestep>
    <timestep time="3.90">
        <vehicle id="201" x="4.10" y="0.30" angle="270.00" type="passenger" speed="0.47" pos="5.90" lane="E5_0" slope="0.00"/>
        <vehicle id="202" x="-1.21" y="-0.30" angle="90.00" type="passenger" speed="0.41" pos="8.79" lane="E3_0" slope="0.00"/>
    </timestep>
    <timestep time="4.00">
        <vehicle id="201" x="4.05" y="0.30" angle="270.00" type="passenger" speed="0.48" pos="5.95" lane="E5_0" slope="0.00"/>
        <vehicle id="202" x="-1.17" y="-0.30" angle="90.00" type="passenger" speed="0.42" pos="8.83" lane="E3_0" slope="0.00"/>
    </timestep>
    <timestep time="4.10">
        <vehicle id="201" x="4.00" y="0.30" angle="270.00" type="passenger" speed="0.47" pos="6.00" lane="E5_0" slope="0.00"/>
        <vehicle id="202" x="-1.13" y="-0.30" angle="90.00" type="passenger" speed="0.41" pos="8.87" lane="E3_0" slope="0.00"/>
    </timestep>
    <timestep time="4.20">
        <vehicle id="201" x="3.96" y="0.30" angle="270.00" type="passenger" speed="0.47" pos="6.04" lane="E5_0" slope="0.00"/>
        <vehicle id="202" x="-1.09" y="-0.30" angle="90.00" type="passenger" speed="0.41" pos="8.91" lane="E3_0" slope="0.00"/>
    </timestep>
    <timestep time="4.30">
        <vehicle id="201" x="3.91" y="0.30" angle="270.00" type="passenger" speed="0.48" pos="6.09" lane="E5_0" slope="0.00"/>
        <vehicle id="202" x="-1.05" y="-0.30" angle="90.00" type="passenger" speed="0.41" pos="8.95" lane="E3_0" slope="0.00"/>
    </timestep>
    <timestep time="4.40">
        <vehicle id="201" x="3.86" y="0.30" angle="270.00" type="passenger" speed="0.47" pos="6.14" lane="E5_0" slope="0.00"/>
        <vehicle id="202" x="-1.01" y="-0.30" angle="90.00" type="passenger" speed="0.42" pos="8.99" lane="E3_0" slope="0.00"/>
    </timestep>
    <timestep time="4.50">
        <vehicle id="201" x="3.81" y="0.30" angle="270.00" type="passenger" speed="0.47" pos="6.19" lane="E5_0" slope="0.00"/>
        <vehicle id="202" x="-0.97" y="-0.30" angle="90.00" type="passenger" speed="0.42" pos="9.03" lane="E3_0" slope="0.00"/>
    </timestep>
    <timestep time="4.60">
        <vehicle id="201" x="3.77" y="0.30" angle="270.00" type="passenger" speed="0.48" pos="6.23" lane="E5_0" slope="0.00"/>
        <vehicle id="202" x="-0.92" y="-0.30" angle="90.00" type="passenger" speed="0.41" pos="9.08" lane="E3_0" slope="0.00"/>
    </timestep>
    <timestep time="4.70">
        <vehicle id="201" x="3.72" y="0.30" angle="270.00" type="passenger" speed="0.48" pos="6.28" lane="E5_0" slope="0.00"/>
        <vehicle id="202" x="-0.88" y="-0.30" angle="90.00" type="passenger" speed="0.42" pos="9.12" lane="E3_0" slope="0.00"/>
    </timestep>
    <timestep time="4.80">
        <vehicle id="201" x="3.67" y="0.30" angle="270.00" type="passenger" speed="0.47" pos="6.33" lane="E5_0" slope="0.00"/>
        <vehicle id="202" x="-0.84" y="-0.30" angle="90.00" type="passenger" speed="0.41" pos="9.16" lane="E3_0" slope="0.00"/>
    </timestep>
    <timestep time="4.90">
        <vehicle id="201" x="3.62" y="0.30" angle="270.00" type="passenger" speed="0.47" pos="6.38" lane="E5_0" slope="0.00"/>
        <vehicle id="202" x="-0.80" y="-0.30" angle="90.00" type="passenger" speed="0.41" pos="9.20" lane="E3_0" slope="0.00"/>
    </timestep>
    <timestep time="5.00">
        <vehicle id="201" x="3.58" y="0.30" angle="270.00" type="passenger" speed="0.48" pos="6.42" lane="E5_0" slope="0.00"/>
        <vehicle id="202" x="-0.76" y="-0.30" angle="90.00" type="passenger" speed="0.41" pos="9.24" lane="E3_0" slope="0.00"/>
    </timestep>
    <timestep time="5.10">
        <vehicle id="201" x="3.53" y="0.30" angle="270.00" type="passenger" speed="0.48" pos="6.47" lane="E5_0" slope="0.00"/>
        <vehicle id="202" x="-0.72" y="-0.30" angle="90.00" type="passenger" speed="0.42" pos="9.28" lane="E3_0" slope="0.00"/>
    </timestep>
    <timestep time="5.20">
        <vehicle id="201" x="3.48" y="0.30" angle="270.00" type="passenger" speed="0.48" pos="6.52" lane="E5_0" slope="0.00"/>
        <vehicle id="202" x="-0.68" y="-0.30" angle="90.00" type="passenger" speed="0.42" pos="0.02" lane=":J7_10_0" slope="0.00"/>
    </timestep>
    <timestep time="5.30">
        <vehicle id="201" x="3.43" y="0.30" angle="270.00" type="passenger" speed="0.47" pos="6.57" lane="E5_0" slope="0.00"/>
        <vehicle id="202" x="-0.63" y="-0.30" angle="90.00" type="passenger" speed="0.41" pos="0.07" lane=":J7_10_0" slope="0.00"/>
    </timestep>
    <timestep time="5.40">
        <vehicle id="201" x="3.39" y="0.30" angle="270.00" type="passenger" speed="0.47" pos="6.61" lane="E5_0" slope="0.00"/>
        <vehicle id="202" x="-0.59" y="-0.30" angle="90.00" type="passenger" speed="0.41" pos="0.11" lane=":J7_10_0" slope="0.00"/>
    </timestep>
    <timestep time="5.50">
        <vehicle id="201" x="3.34" y="0.30" angle="270.00" type="passenger" speed="0.48" pos="6.66" lane="E5_0" slope="0.00"/>
        <vehicle id="202" x="-0.55" y="-0.30" angle="90.00" type="passenger" speed="0.41" pos="0.15" lane=":J7_10_0" slope="0.00"/>
    </timestep>
    <timestep time="5.60">
        <vehicle id="201" x="3.29" y="0.30" angle="270.00" type="passenger" speed="0.47" pos="6.71" lane="E5_0" slope="0.00"/>
        <vehicle id="202" x="-0.51" y="-0.30" angle="90.00" type="passenger" speed="0.42" pos="0.19" lane=":J7_10_0" slope="0.00"/>
    </timestep>
    <timestep time="5.70">
        <vehicle id="201" x="3.24" y="0.30" angle="270.00" type="passenger" speed="0.48" pos="6.76" lane="E5_0" slope="0.00"/>
        <vehicle id="202" x="-0.47" y="-0.30" angle="90.00" type="passenger" speed="0.42" pos="0.23" lane=":J7_10_0" slope="0.00"/>
    </timestep>
    <timestep time="5.80">
        <vehicle id="201" x="3.19" y="0.30" angle="270.00" type="passenger" speed="0.48" pos="6.81" lane="E5_0" slope="0.00"/>
        <vehicle id="202" x="-0.43" y="-0.30" angle="90.00" type="passenger" speed="0.41" pos="0.27" lane=":J7_10_0" slope="0.00"/>
    </timestep>
    <timestep time="5.90">
        <vehicle id="201" x="3.15" y="0.30" angle="270.00" type="passenger" speed="0.47" pos="6.85" lane="E5_0" slope="0.00"/>
        <vehicle id="202" x="-0.39" y="-0.30" angle="90.00" type="passenger" speed="0.41" pos="0.31" lane=":J7_10_0" slope="0.00"/>
    </timestep>
    <timestep time="6.00">
        <vehicle id="201" x="3.10" y="0.30" angle="270.00" type="passenger" speed="0.47" pos="6.90" lane="E5_0" slope="0.00"/>
        <vehicle id="202" x="-0.34" y="-0.30" angle="90.00" type="passenger" speed="0.42" pos="0.36" lane=":J7_10_0" slope="0.00"/>
    </timestep>
    <timestep time="6.10">
        <vehicle id="201" x="3.05" y="0.30" angle="270.00" type="passenger" speed="0.48" pos="6.95" lane="E5_0" slope="0.00"/>
        <vehicle id="202" x="-0.30" y="-0.30" angle="90.00" type="passenger" speed="0.42" pos="0.40" lane=":J7_10_0" slope="0.00"/>
    </timestep>
    <timestep time="6.20">
        <vehicle id="201" x="3.00" y="0.30" angle="270.00" type="passenger" speed="0.48" pos="7.00" lane="E5_0" slope="0.00"/>
        <vehicle id="202" x="-0.26" y="-0.30" angle="90.00" type="passenger" speed="0.42" pos="0.44" lane=":J7_10_0" slope="0.00"/>
    </timestep>
    <timestep time="6.30">
        <vehicle id="201" x="2.96" y="0.30" angle="270.00" type="passenger" speed="0.48" pos="7.04" lane="E5_0" slope="0.00"/>
        <vehicle id="202" x="-0.22" y="-0.30" angle="90.00" type="passenger" speed="0.42" pos="0.48" lane=":J7_10_0" slope="0.00"/>
    </timestep>
    <timestep time="6.40">
        <vehicle id="201" x="2.91" y="0.30" angle="270.00" type="passenger" speed="0.47" pos="7.09" lane="E5_0" slope="0.00"/>
        <vehicle id="202" x="-0.18" y="-0.30" angle="90.00" type="passenger" speed="0.41" pos="0.52" lane=":J7_10_0" slope="0.00"/>
    </timestep>
    <timestep time="6.50">
        <vehicle id="201" x="2.86" y="0.30" angle="270.00" type="passenger" speed="0.48" pos="7.14" lane="E5_0" slope="0.00"/>
        <vehicle id="202" x="-0.14" y="-0.30" angle="90.00" type="passenger" speed="0.41" pos="0.56" lane=":J7_10_0" slope="0.00"/>
    </timestep>
    <timestep time="6.60">
        <vehicle id="201" x="2.81" y="0.30" angle="270.00" type="passenger" speed="0.48" pos="7.19" lane="E5_0" slope="0.00"/>
        <vehicle id="202" x="-0.10" y="-0.30" angle="90.00" type="passenger" speed="0.42" pos="0.60" lane=":J7_10_0" slope="0.00"/>
    </timestep>
    <timestep time="6.70">
        <vehicle id="201" x="2.77" y="0.30" angle="270.00" type="passenger" speed="0.47" pos="7.23" lane="E5_0" slope="0.00"/>
        <vehicle id="202" x="-0.05" y="-0.30" angle="90.00" type="passenger" speed="0.41" pos="0.65" lane=":J7_10_0" slope="0.00"/>
    </timestep>
    <timestep time="6.80">
        <vehicle id="201" x="2.72" y="0.30" angle="270.00" type="passenger" speed="0.47" pos="7.28" lane="E5_0" slope="0.00"/>
        <vehicle id="202" x="-0.01" y="-0.30" angle="90.00" type="passenger" speed="0.41" pos="0.69" lane=":J7_10_0" slope="0.00"/>
    </timestep>
    <timestep time="6.90">
        <vehicle id="201" x="2.67" y="0.30" angle="270.00" type="passenger" speed="0.48" pos="7.33" lane="E5_0" slope="0.00"/>
        <vehicle id="202" x="0.03" y="-0.30" angle="90.00" type="passenger" speed="0.41" pos="0.73" lane=":J7_10_0" slope="0.00"/>
    </timestep>
    <timestep time="7.00">
        <vehicle id="201" x="2.62" y="0.30" angle="270.00" type="passenger" speed="0.47" pos="7.38" lane="E5_0" slope="0.00"/>
        <vehicle id="202" x="0.07" y="-0.30" angle="90.00" type="passenger" speed="0.41" pos="0.77" lane=":J7_10_0" slope="0.00"/>
    </timestep>
    <timestep time="7.10">
        <vehicle id="201" x="2.58" y="0.30" angle="270.00" type="passenger" speed="0.48" pos="7.42" lane="E5_0" slope="0.00"/>
        <vehicle id="202" x="0.11" y="-0.30" angle="90.00" type="passenger" speed="0.42" pos="0.81" lane=":J7_10_0" slope="0.00"/>
    </timestep>
    <timestep time="7.20">
        <vehicle id="201" x="2.53" y="0.30" angle="270.00" type="passenger" speed="0.48" pos="7.47" lane="E5_0" slope="0.00"/>
        <vehicle id="202" x="0.15" y="-0.30" angle="90.00" type="passenger" speed="0.42" pos="0.85" lane=":J7_10_0" slope="0.00"/>
    </timestep>
    <timestep time="7.30">
        <vehicle id="201" x="2.48" y="0.30" angle="270.00" type="passenger" speed="0.47" pos="7.52" lane="E5_0" slope="0.00"/>
        <vehicle id="202" x="0.19" y="-0.30" angle="90.00" type="passenger" speed="0.41" pos="0.89" lane=":J7_10_0" slope="0.00"/>
    </timestep>
    <timestep time="7.40">
        <vehicle id="201" x="2.43" y="0.30" angle="270.00" type="passenger" speed="0.48" pos="7.57" lane="E5_0" slope="0.00"/>
        <vehicle id="202" x="0.23" y="-0.30" angle="90.00" type="passenger" speed="0.41" pos="0.93" lane=":J7_10_0" slope="0.00"/>
    </timestep>
    <timestep time="7.50">
        <vehicle id="201" x="2.39" y="0.30" angle="270.00" type="passenger" speed="0.47" pos="7.61" lane="E5_0" slope="0.00"/>
        <vehicle id="202" x="0.28" y="-0.30" angle="90.00" type="passenger" speed="0.41" pos="0.98" lane=":J7_10_0" slope="0.00"/>
    </timestep>
    <timestep time="7.60">
        <vehicle id="201" x="2.34" y="0.30" angle="270.00" type="passenger" speed="0.47" pos="7.66" lane="E5_0" slope="0.00"/>
        <vehicle id="202" x="0.32" y="-0.30" angle="90.00" type="passenger" speed="0.42" pos="1.02" lane=":J7_10_0" slope="0.00"/>
    </timestep>
    <timestep time="7.70">
        <vehicle id="201" x="2.29" y="0.30" angle="270.00" type="passenger" speed="0.47" pos="7.71" lane="E5_0" slope="0.00"/>
        <vehicle id="202" x="0.36" y="-0.30" angle="90.00" type="passenger" speed="0.41" pos="1.06" lane=":J7_10_0" slope="0.00"/>
    </timestep>
    <timestep time="7.80">
        <vehicle id="201" x="2.25" y="0.30" angle="270.00" type="passenger" speed="0.47" pos="7.75" lane="E5_0" slope="0.00"/>
        <vehicle id="202" x="0.40" y="-0.30" angle="90.00" type="passenger" speed="0.41" pos="1.10" lane=":J7_10_0" slope="0.00"/>
    </timestep>
    <timestep time="7.90">
        <vehicle id="201" x="2.20" y="0.30" angle="270.00" type="passenger" speed="0.47" pos="7.80" lane="E5_0" slope="0.00"/>
        <vehicle id="202" x="0.44" y="-0.30" angle="90.00" type="passenger" speed="0.42" pos="1.14" lane=":J7_10_0" slope="0.00"/>
    </timestep>
    <timestep time="8.00">
        <vehicle id="201" x="2.15" y="0.30" angle="270.00" type="passenger" speed="0.48" pos="7.85" lane="E5_0" slope="0.00"/>
        <vehicle id="202" x="0.48" y="-0.30" angle="90.00" type="passenger" speed="0.41" pos="1.18" lane=":J7_10_0" slope="0.00"/>
    </timestep>
    <timestep time="8.10">
        <vehicle id="201" x="2.10" y="0.30" angle="270.00" type="passenger" speed="0.47" pos="7.90" lane="E5_0" slope="0.00"/>
        <vehicle id="202" x="0.52" y="-0.30" angle="90.00" type="passenger" speed="0.41" pos="1.22" lane=":J7_10_0" slope="0.00"/>
    </timestep>
    <timestep time="8.20">
        <vehicle id="201" x="2.06" y="0.30" angle="270.00" type="passenger" speed="0.48" pos="7.94" lane="E5_0" slope="0.00"/>
        <vehicle id="202" x="0.57" y="-0.30" angle="90.00" type="passenger" speed="0.42" pos="1.27" lane=":J7_10_0" slope="0.00"/>
    </timestep>
    <timestep time="8.30">
        <vehicle id="201" x="2.01" y="0.30" angle="270.00" type="passenger" speed="0.47" pos="7.99" lane="E5_0" slope="0.00"/>
        <vehicle id="202" x="0.61" y="-0.30" angle="90.00" type="passenger" speed="0.42" pos="1.31" lane=":J7_10_0" slope="0.00"/>
    </timestep>
    <timestep time="8.40">
        <vehicle id="201" x="1.96" y="0.30" angle="270.00" type="passenger" speed="0.48" pos="8.04" lane="E5_0" slope="0.00"/>
        <vehicle id="202" x="0.65" y="-0.30" angle="90.00" type="passenger" speed="0.42" pos="1.35" lane=":J7_10_0" slope="0.00"/>
    </timestep>
    <timestep time="8.50">
        <vehicle id="201" x="1.91" y="0.30" angle="270.00" type="passenger" speed="0.47" pos="8.09" lane="E5_0" slope="0.00"/>
        <vehicle id="202" x="0.69" y="-0.30" angle="90.00" type="passenger" speed="0.41" pos="1.39" lane=":J7_10_0" slope="0.00"/>
    </timestep>
    <timestep time="8.60">
        <vehicle id="201" x="1.87" y="0.30" angle="270.00" type="passenger" speed="0.47" pos="8.13" lane="E5_0" slope="0.00"/>
        <vehicle id="202" x="0.73" y="-0.30" angle="90.00" type="passenger" speed="0.41" pos="0.03" lane="-E5_0" slope="0.00"/>
    </timestep>
    <timestep time="8.70">
        <vehicle id="201" x="1.82" y="0.30" angle="270.00" type="passenger" speed="0.47" pos="8.18" lane="E5_0" slope="0.00"/>
        <vehicle id="202" x="0.77" y="-0.30" angle="90.00" type="passenger" speed="0.42" pos="0.07" lane="-E5_0" slope="0.00"/>
    </timestep>
    <timestep time="8.80">
        <vehicle id="201" x="1.77" y="0.30" angle="270.00" type="passenger" speed="0.48" pos="8.23" lane="E5_0" slope="0.00"/>
        <vehicle id="202" x="0.81" y="-0.30" angle="90.00" type="passenger" speed="0.41" pos="0.11" lane="-E5_0" slope="0.00"/>
    </timestep>
    <timestep time="8.90">
        <vehicle id="201" x="1.72" y="0.30" angle="270.00" type="passenger" speed="0.47" pos="8.28" lane="E5_0" slope="0.00"/>
        <vehicle id="202" x="0.86" y="-0.30" angle="90.00" type="passenger" speed="0.42" pos="0.16" lane="-E5_0" slope="0.00"/>
    </timestep>
    <timestep time="9.00">
        <vehicle id="201" x="1.68" y="0.30" angle="270.00" type="passenger" speed="0.47" pos="8.32" lane="E5_0" slope="0.00"/>
        <vehicle id="202" x="0.90" y="-0.30" angle="90.00" type="passenger" speed="0.42" pos="0.20" lane="-E5_0" slope="0.00"/>
    </timestep>
    <timestep time="9.10">
        <vehicle id="201" x="1.63" y="0.30" angle="270.00" type="passenger" speed="0.48" pos="8.37" lane="E5_0" slope="0.00"/>
        <vehicle id="202" x="0.94" y="-0.30" angle="90.00" type="passenger" speed="0.41" pos="0.24" lane="-E5_0" slope="0.00"/>
    </timestep>
    <timestep time="9.20">
        <vehicle id="201" x="1.58" y="0.30" angle="270.00" type="passenger" speed="0.48" pos="8.42" lane="E5_0" slope="0.00"/>
        <vehicle id="202" x="0.98" y="-0.30" angle="90.00" type="passenger" speed="0.42" pos="0.28" lane="-E5_0" slope="0.00"/>
    </timestep>
    <timestep time="9.30">
        <vehicle id="201" x="1.53" y="0.30" angle="270.00" type="passenger" speed="0.48" pos="8.47" lane="E5_0" slope="0.00"/>
        <vehicle id="202" x="1.02" y="-0.30" angle="90.00" type="passenger" speed="0.41" pos="0.32" lane="-E5_0" slope="0.00"/>
    </timestep>
    <timestep time="9.40">
        <vehicle id="201" x="1.49" y="0.30" angle="270.00" type="passenger" speed="0.47" pos="8.51" lane="E5_0" slope="0.00"/>
        <vehicle id="202" x="1.06" y="-0.30" angle="90.00" type="passenger" speed="0.41" pos="0.36" lane="-E5_0" slope="0.00"/>
    </timestep>
    <timestep time="9.50">
        <vehicle id="201" x="1.44" y="0.30" angle="270.00" type="passenger" speed="0.48" pos="8.56" lane="E5_0" slope="0.00"/>
        <vehicle id="202" x="1.11" y="-0.30" angle="90.00" type="passenger" speed="0.42" pos="0.41" lane="-E5_0" slope="0.00"/>
    </timestep>
    <timestep time="9.60">
        <vehicle id="201" x="1.39" y="0.30" angle="270.00" type="passenger" speed="0.47" pos="8.61" lane="E5_0" slope="0.00"/>
        <vehicle id="202" x="1.15" y="-0.30" angle="90.00" type="passenger" speed="0.42" pos="0.45" lane="-E5_0" slope="0.00"/>
    </timestep>
    <timestep time="9.70">