<?xml version="1.0" encoding="UTF-8"?>

<!-- generated on 2024-06-25 12:10:46 by Eclipse SUMO sumo Version 1.20.0
<configuration xmlns:xsi="http://www.w3.org/2001/XMLSchema-instance" xsi:noNamespaceSchemaLocation="http://sumo.dlr.de/xsd/sumoConfiguration.xsd">

    <input>
        <net-file value="scenarios/conv_scenario_164/real_world.net.xml"/>
        <route-files value="scenarios/conv_scenario_164/real_world.vehicles.rou.xml"/>
        <additional-files value="scenarios/conv_scenario_164/real_world.add.xml"/>
    </input>

    <output>
        <fcd-output value="scenarios/conv_scenario_164/fcd.xml"/>
        <lanechange-output value="scenarios/conv_scenario_164/output_lanechange.txt"/>
    </output>

    <time>
        <begin value="0"/>
        <step-length value="0.1"/>
    </time>

    <processing>
        <time-to-teleport value="-1"/>
        <lanechange.duration value="15"/>
    </processing>

    <report>
        <verbose value="true"/>
        <no-step-log value="true"/>
    </report>

</configuration>
-->

<fcd-export xmlns:xsi="http://www.w3.org/2001/XMLSchema-instance" xsi:noNamespaceSchemaLocation="http://sumo.dlr.de/xsd/fcd_file.xsd">
    <timestep time="0.00"/>
    <timestep time="0.10">
        <vehicle id="201" x="2.37" y="0.25" angle="270.00" type="passenger" speed="0.00" pos="7.63" lane="E5_0" slope="0.00"/>
        <vehicle id="202" x="-0.25" y="2.89" angle="180.00" type="passenger" speed="0.00" pos="7.11" lane="E4_0" slope="0.00"/>
        <vehicle id="203" x="-0.25" y="3.69" angle="180.00" type="passenger" speed="0.00" pos="6.31" lane="E4_0" slope="0.00"/>
        <vehicle id="204" x="-1.31" y="-0.25" angle="90.00" type="passenger" speed="0.00" pos="8.69" lane="E3_0" slope="0.00"/>
        <vehicle id="205" x="-3.86" y="-0.25" angle="90.00" type="passenger" speed="0.00" pos="6.14" lane="E3_0" slope="0.00"/>
    </timestep>
    <timestep time="0.20">
        <vehicle id="201" x="2.37" y="0.25" angle="270.00" type="passenger" speed="0.02" pos="7.63" lane="E5_0" slope="0.00"/>
        <vehicle id="202" x="-0.25" y="2.89" angle="180.00" type="passenger" speed="0.02" pos="7.11" lane="E4_0" slope="0.00"/>
        <vehicle id="203" x="-0.25" y="3.69" angle="180.00" type="passenger" speed="0.02" pos="6.31" lane="E4_0" slope="0.00"/>
        <vehicle id="204" x="-1.31" y="-0.25" angle="90.00" type="passenger" speed="0.02" pos="8.69" lane="E3_0" slope="0.00"/>
        <vehicle id="205" x="-3.86" y="-0.25" angle="90.00" type="passenger" speed="0.02" pos="6.14" lane="E3_0" slope="0.00"/>
    </timestep>
    <timestep time="0.30">
        <vehicle id="201" x="2.36" y="0.25" angle="270.00" type="passenger" speed="0.04" pos="7.64" lane="E5_0" slope="0.00"/>
        <vehicle id="202" x="-0.25" y="2.89" angle="180.00" type="passenger" speed="0.04" pos="7.11" lane="E4_0" slope="0.00"/>
        <vehicle id="203" x="-0.25" y="3.69" angle="180.00" type="passenger" speed="0.04" pos="6.31" lane="E4_0" slope="0.00"/>
        <vehicle id="204" x="-1.31" y="-0.25" angle="90.00" type="passenger" speed="0.04" pos="8.69" lane="E3_0" slope="0.00"/>
        <vehicle id="205" x="-3.86" y="-0.25" angle="90.00" type="passenger" speed="0.04" pos="6.14" lane="E3_0" slope="0.00"/>
    </timestep>
    <timestep time="0.40">
        <vehicle id="201" x="2.36" y="0.25" angle="270.00" type="passenger" speed="0.06" pos="7.64" lane="E5_0" slope="0.00"/>
        <vehicle id="202" x="-0.25" y="2.88" angle="180.00" type="passenger" speed="0.06" pos="7.12" lane="E4_0" slope="0.00"/>
        <vehicle id="203" x="-0.25" y="3.68" angle="180.00" type="passenger" speed="0.06" pos="6.32" lane="E4_0" slope="0.00"/>
        <vehicle id="204" x="-1.30" y="-0.25" angle="90.00" type="passenger" speed="0.06" pos="8.70" lane="E3_0" slope="0.00"/>
        <vehicle id="205" x="-3.85" y="-0.25" angle="90.00" type="passenger" speed="0.06" pos="6.15" lane="E3_0" slope="0.00"/>
    </timestep>
    <timestep time="0.50">
        <vehicle id="201" x="2.35" y="0.25" angle="270.00" type="passenger" speed="0.08" pos="7.65" lane="E5_0" slope="0.00"/>
        <vehicle id="202" x="-0.25" y="2.87" angle="180.00" type="passenger" speed="0.08" pos="7.13" lane="E4_0" slope="0.00"/>
        <vehicle id="203" x="-0.25" y="3.67" angle="180.00" type="passenger" speed="0.08" pos="6.33" lane="E4_0" slope="0.00"/>
        <vehicle id="204" x="-1.30" y="-0.25" angle="90.00" type="passenger" speed="0.07" pos="8.70" lane="E3_0" slope="0.00"/>
        <vehicle id="205" x="-3.84" y="-0.25" angle="90.00" type="passenger" speed="0.08" pos="6.16" lane="E3_0" slope="0.00"/>
    </timestep>
    <timestep time="0.60">
        <vehicle id="201" x="2.34" y="0.25" angle="270.00" type="passenger" speed="0.10" pos="7.66" lane="E5_0" slope="0.00"/>
        <vehicle id="202" x="-0.25" y="2.86" angle="180.00" type="passenger" speed="0.09" pos="7.14" lane="E4_0" slope="0.00"/>
        <vehicle id="203" x="-0.25" y="3.66" angle="180.00" type="passenger" speed="0.10" pos="6.34" lane="E4_0" slope="0.00"/>
        <vehicle id="204" x="-1.29" y="-0.25" angle="90.00" type="passenger" speed="0.09" pos="8.71" lane="E3_0" slope="0.00"/>
        <vehicle id="205" x="-3.83" y="-0.25" angle="90.00" type="passenger" speed="0.10" pos="6.17" lane="E3_0" slope="0.00"/>
    </timestep>
    <timestep time="0.70">
        <vehicle id="201" x="2.33" y="0.25" angle="270.00" type="passenger" speed="0.11" pos="7.67" lane="E5_0" slope="0.00"/>
        <vehicle id="202" x="-0.25" y="2.85" angle="180.00" type="passenger" speed="0.11" pos="7.15" lane="E4_0" slope="0.00"/>
        <vehicle id="203" x="-0.25" y="3.65" angle="180.00" type="passenger" speed="0.12" pos="6.35" lane="E4_0" slope="0.00"/>
        <vehicle id="204" x="-1.28" y="-0.25" angle="90.00" type="passenger" speed="0.11" pos="8.72" lane="E3_0" slope="0.00"/>
        <vehicle id="205" x="-3.82" y="-0.25" angle="90.00" type="passenger" speed="0.11" pos="6.18" lane="E3_0" slope="0.00"/>
    </timestep>
    <timestep time="0.80">
        <vehicle id="201" x="2.32" y="0.25" angle="270.00" type="passenger" speed="0.13" pos="7.68" lane="E5_0" slope="0.00"/>
        <vehicle id="202" x="-0.25" y="2.84" angle="180.00" type="passenger" speed="0.13" pos="7.16" lane="E4_0" slope="0.00"/>
        <vehicle id="203" x="-0.25" y="3.64" angle="180.00" type="passenger" speed="0.13" pos="6.36" lane="E4_0" slope="0.00"/>
        <vehicle id="204" x="-1.26" y="-0.25" angle="90.00" type="passenger" speed="0.12" pos="8.74" lane="E3_0" slope="0.00"/>
        <vehicle id="205" x="-3.81" y="-0.25" angle="90.00" type="passenger" speed="0.13" pos="6.19" lane="E3_0" slope="0.00"/>
    </timestep>
    <timestep time="0.90">
        <vehicle id="201" x="2.30" y="0.25" angle="270.00" type="passenger" speed="0.15" pos="7.70" lane="E5_0" slope="0.00"/>
        <vehicle id="202" x="-0.25" y="2.83" angle="180.00" type="passenger" speed="0.14" pos="7.17" lane="E4_0" slope="0.00"/>
        <vehicle id="203" x="-0.25" y="3.62" angle="180.00" type="passenger" speed="0.15" pos="6.38" lane="E4_0" slope="0.00"/>
        <vehicle id="204" x="-1.25" y="-0.25" angle="90.00" type="passenger" speed="0.14" pos="8.75" lane="E3_0" slope="0.00"/>
        <vehicle id="205" x="-3.80" y="-0.25" angle="90.00" type="passenger" speed="0.14" pos="6.20" lane="E3_0" slope="0.00"/>
    </timestep>
    <timestep time="1.00">
        <vehicle id="201" x="2.28" y="0.25" angle="270.00" type="passenger" speed="0.17" pos="7.72" lane="E5_0" slope="0.00"/>
        <vehicle id="202" x="-0.25" y="2.81" angle="180.00" type="passenger" speed="0.16" pos="7.19" lane="E4_0" slope="0.00"/>
        <vehicle id="203" x="-0.25" y="3.61" angle="180.00" type="passenger" speed="0.17" pos="6.39" lane="E4_0" slope="0.00"/>
        <vehicle id="204" x="-1.23" y="-0.25" angle="90.00" type="passenger" speed="0.16" pos="8.77" lane="E3_0" slope="0.00"/>
        <vehicle id="205" x="-3.78" y="-0.25" angle="90.00" type="passenger" speed="0.16" pos="6.22" lane="E3_0" slope="0.00"/>
    </timestep>
    <timestep time="1.10">
        <vehicle id="201" x="2.27" y="0.25" angle="270.00" type="passenger" speed="0.18" pos="7.73" lane="E5_0" slope="0.00"/>
        <vehicle id="202" x="-0.25" y="2.79" angle="180.00" type="passenger" speed="0.17" pos="7.21" lane="E4_0" slope="0.00"/>
        <vehicle id="203" x="-0.25" y="3.59" angle="180.00" type="passenger" speed="0.17" pos="6.41" lane="E4_0" slope="0.00"/>
        <vehicle id="204" x="-1.21" y="-0.25" angle="90.00" type="passenger" speed="0.18" pos="8.79" lane="E3_0" slope="0.00"/>
        <vehicle id="205" x="-3.76" y="-0.25" angle="90.00" type="passenger" speed="0.17" pos="6.24" lane="E3_0" slope="0.00"/>
    </timestep>
    <timestep time="1.20">
        <vehicle id="201" x="2.25" y="0.25" angle="270.00" type="passenger" speed="0.20" pos="7.75" lane="E5_0" slope="0.00"/>
        <vehicle id="202" x="-0.25" y="2.78" angle="180.00" type="passenger" speed="0.18" pos="7.22" lane="E4_0" slope="0.00"/>
        <vehicle id="203" x="-0.25" y="3.57" angle="180.00" type="passenger" speed="0.17" pos="6.43" lane="E4_0" slope="0.00"/>
        <vehicle id="204" x="-1.20" y="-0.25" angle="90.00" type="passenger" speed="0.19" pos="8.80" lane="E3_0" slope="0.00"/>
        <vehicle id="205" x="-3.74" y="-0.25" angle="90.00" type="passenger" speed="0.19" pos="6.26" lane="E3_0" slope="0.00"/>
    </timestep>
    <timestep time="1.30">
        <vehicle id="201" x="2.22" y="0.25" angle="270.00" type="passenger" speed="0.22" pos="7.78" lane="E5_0" slope="0.00"/>
        <vehicle id="202" x="-0.25" y="2.76" angle="180.00" type="passenger" speed="0.20" pos="7.24" lane="E4_0" slope="0.00"/>
        <vehicle id="203" x="-0.25" y="3.55" angle="180.00" type="passenger" speed="0.19" pos="6.45" lane="E4_0" slope="0.00"/>
        <vehicle id="204" x="-1.18" y="-0.25" angle="90.00" type="passenger" speed="0.20" pos="8.82" lane="E3_0" slope="0.00"/>
        <vehicle id="205" x="-3.72" y="-0.25" angle="90.00" type="passenger" speed="0.21" pos="6.28" lane="E3_0" slope="0.00"/>
    </timestep>
    <timestep time="1.40">
        <vehicle id="201" x="2.20" y="0.25" angle="270.00" type="passenger" speed="0.23" pos="7.80" lane="E5_0" slope="0.00"/>
        <vehicle id="202" x="-0.25" y="2.73" angle="180.00" type="passenger" speed="0.21" pos="7.27" lane="E4_0" slope="0.00"/>
        <vehicle id="203" x="-0.25" y="3.53" angle="180.00" type="passenger" speed="0.19" pos="6.47" lane="E4_0" slope="0.00"/>
        <vehicle id="204" x="-1.15" y="-0.25" angle="90.00" type="passenger" speed="0.21" pos="8.85" lane="E3_0" slope="0.00"/>
        <vehicle id="205" x="-3.70" y="-0.25" angle="90.00" type="passenger" speed="0.22" pos="6.30" lane="E3_0" slope="0.00"/>
    </timestep>
    <timestep time="1.50">
        <vehicle id="201" x="2.17" y="0.25" angle="270.00" type="passenger" speed="0.25" pos="7.83" lane="E5_0" slope="0.00"/>
        <vehicle id="202" x="-0.25" y="2.71" angle="180.00" type="passenger" speed="0.22" pos="7.29" lane="E4_0" slope="0.00"/>
        <vehicle id="203" x="-0.25" y="3.51" angle="180.00" type="passenger" speed="0.20" pos="6.49" lane="E4_0" slope="0.00"/>
        <vehicle id="204" x="-1.13" y="-0.25" angle="90.00" type="passenger" speed="0.23" pos="8.87" lane="E3_0" slope="0.00"/>
        <vehicle id="205" x="-3.68" y="-0.25" angle="90.00" type="passenger" speed="0.23" pos="6.32" lane="E3_0" slope="0.00"/>
    </timestep>
    <timestep time="1.60">
        <vehicle id="201" x="2.15" y="0.25" angle="270.00" type="passenger" speed="0.27" pos="7.85" lane="E5_0" slope="0.00"/>
        <vehicle id="202" x="-0.25" y="2.69" angle="180.00" type="passenger" speed="0.24" pos="7.31" lane="E4_0" slope="0.00"/>
        <vehicle id="203" x="-0.25" y="3.49" angle="180.00" type="passenger" speed="0.21" pos="6.51" lane="E4_0" slope="0.00"/>
        <vehicle id="204" x="-1.11" y="-0.25" angle="90.00" type="passenger" speed="0.24" pos="8.89" lane="E3_0" slope="0.00"/>
        <vehicle id="205" x="-3.65" y="-0.25" angle="90.00" type="passenger" speed="0.25" pos="6.35" lane="E3_0" slope="0.00"/>
    </timestep>
    <timestep time="1.70">
        <vehicle id="201" x="2.12" y="0.25" angle="270.00" type="passenger" speed="0.29" pos="7.88" lane="E5_0" slope="0.00"/>
        <vehicle id="202" x="-0.25" y="2.66" angle="180.00" type="passenger" speed="0.26" pos="7.34" lane="E4_0" slope="0.00"/>
        <vehicle id="203" x="-0.25" y="3.47" angle="180.00" type="passenger" speed="0.22" pos="6.53" lane="E4_0" slope="0.00"/>
        <vehicle id="204" x="-1.08" y="-0.25" angle="90.00" type="passenger" speed="0.26" pos="8.92" lane="E3_0" slope="0.00"/>
        <vehicle id="205" x="-3.63" y="-0.25" angle="90.00" type="passenger" speed="0.26" pos="6.37" lane="E3_0" slope="0.00"/>
    </timestep>
    <timestep time="1.80">
        <vehicle id="201" x="2.09" y="0.25" angle="270.00" type="passenger" speed="0.30" pos="7.91" lane="E5_0" slope="0.00"/>
        <vehicle id="202" x="-0.25" y="2.63" angle="180.00" type="passenger" speed="0.27" pos="7.37" lane="E4_0" slope="0.00"/>
        <vehicle id="203" x="-0.25" y="3.45" angle="180.00" type="passenger" speed="0.23" pos="6.55" lane="E4_0" slope="0.00"/>
        <vehicle id="204" x="-1.05" y="-0.25" angle="90.00" type="passenger" speed="0.27" pos="8.95" lane="E3_0" slope="0.00"/>
        <vehicle id="205" x="-3.60" y="-0.25" angle="90.00" type="passenger" speed="0.27" pos="6.40" lane="E3_0" slope="0.00"/>
    </timestep>
    <timestep time="1.90">
        <vehicle id="201" x="2.06" y="0.25" angle="270.00" type="passenger" speed="0.31" pos="7.94" lane="E5_0" slope="0.00"/>
        <vehicle id="202" x="-0.25" y="2.61" angle="180.00" type="passenger" speed="0.29" pos="7.39" lane="E4_0" slope="0.00"/>
        <vehicle id="203" x="-0.25" y="3.42" angle="180.00" type="passenger" speed="0.24" pos="6.58" lane="E4_0" slope="0.00"/>
        <vehicle id="204" x="-1.03" y="-0.25" angle="90.00" type="passenger" speed="0.29" pos="8.97" lane="E3_0" slope="0.00"/>
        <vehicle id="205" x="-3.57" y="-0.25" angle="90.00" type="passenger" speed="0.29" pos="6.43" lane="E3_0" slope="0.00"/>
    </timestep>
    <timestep time="2.00">
        <vehicle id="201" x="2.02" y="0.25" angle="270.00" type="passenger" speed="0.33" pos="7.98" lane="E5_0" slope="0.00"/>
        <vehicle id="202" x="-0.25" y="2.58" angle="180.00" type="passenger" speed="0.30" pos="7.42" lane="E4_0" slope="0.00"/>
        <vehicle id="203" x="-0.25" y="3.40" angle="180.00" type="passenger" speed="0.25" pos="6.60" lane="E4_0" slope="0.00"/>
        <vehicle id="204" x="-1.00" y="-0.25" angle="90.00" type="passenger" speed="0.30" pos="9.00" lane="E3_0" slope="0.00"/>
        <vehicle id="205" x="-3.54" y="-0.25" angle="90.00" type="passenger" speed="0.30" pos="6.46" lane="E3_0" slope="0.00"/>
    </timestep>
    <timestep time="2.10">
        <vehicle id="201" x="1.99" y="0.25" angle="270.00" type="passenger" speed="0.35" pos="8.01" lane="E5_0" slope="0.00"/>
        <vehicle id="202" x="-0.25" y="2.54" angle="180.00" type="passenger" speed="0.31" pos="7.46" lane="E4_0" slope="0.00"/>
        <vehicle id="203" x="-0.25" y="3.37" angle="180.00" type="passenger" speed="0.26" pos="6.63" lane="E4_0" slope="0.00"/>
        <vehicle id="204" x="-0.96" y="-0.25" angle="90.00" type="passenger" speed="0.32" pos="9.04" lane="E3_0" slope="0.00"/>
        <vehicle id="205" x="-3.51" y="-0.25" angle="90.00" type="passenger" speed="0.31" pos="6.49" lane="E3_0" slope="0.00"/>
    </timestep>
    <timestep time="2.20">
        <vehicle id="201" x="1.95" y="0.25" angle="270.00" type="passenger" speed="0.37" pos="8.05" lane="E5_0" slope="0.00"/>
        <vehicle id="202" x="-0.25" y="2.51" angle="180.00" type="passenger" speed="0.32" pos="7.49" lane="E4_0" slope="0.00"/>
        <vehicle id="203" x="-0.25" y="3.35" angle="180.00" type="passenger" speed="0.27" pos="6.65" lane="E4_0" slope="0.00"/>
        <vehicle id="204" x="-0.93" y="-0.25" angle="90.00" type="passenger" speed="0.34" pos="9.07" lane="E3_0" slope="0.00"/>
        <vehicle id="205" x="-3.48" y="-0.25" angle="90.00" type="passenger" speed="0.33" pos="6.52" lane="E3_0" slope="0.00"/>
    </timestep>
    <timestep time="2.30">
        <vehicle id="201" x="1.91" y="0.25" angle="270.00" type="passenger" speed="0.38" pos="8.09" lane="E5_0" slope="0.00"/>
        <vehicle id="202" x="-0.25" y="2.48" angle="180.00" type="passenger" speed="0.34" pos="7.52" lane="E4_0" slope="0.00"/>
        <vehicle id="203" x="-0.25" y="3.32" angle="180.00" type="passenger" speed="0.29" pos="6.68" lane="E4_0" slope="0.00"/>
        <vehicle id="204" x="-0.89" y="-0.25" angle="90.00" type="passenger" speed="0.35" pos="9.11" lane="E3_0" slope="0.00"/>
        <vehicle id="205" x="-3.44" y="-0.25" angle="90.00" type="passenger" speed="0.34" pos="6.56" lane="E3_0" slope="0.00"/>
    </timestep>
    <timestep time="2.40">
        <vehicle id="201" x="1.87" y="0.25" angle="270.00" type="passenger" speed="0.39" pos="8.13" lane="E5_0" slope="0.00"/>
        <vehicle id="202" x="-0.25" y="2.44" angle="180.00" type="passenger" speed="0.35" pos="7.56" lane="E4_0" slope="0.00"/>
        <vehicle id="203" x="-0.25" y="3.29" angle="180.00" type="passenger" speed="0.30" pos="6.71" lane="E4_0" slope="0.00"/>
        <vehicle id="204" x="-0.86" y="-0.25" angle="90.00" type="passenger" speed="0.37" pos="9.14" lane="E3_0" slope="0.00"/>
        <vehicle id="205" x="-3.41" y="-0.25" angle="90.00" type="passenger" speed="0.36" pos="6.59" lane="E3_0" slope="0.00"/>
    </timestep>
    <timestep time="2.50">
        <vehicle id="201" x="1.83" y="0.25" angle="270.00" type="passenger" speed="0.41" pos="8.17" lane="E5_0" slope="0.00"/>
        <vehicle id="202" x="-0.25" y="2.41" angle="180.00" type="passenger" speed="0.36" pos="7.59" lane="E4_0" slope="0.00"/>
        <vehicle id="203" x="-0.25" y="3.26" angle="180.00" type="passenger" speed="0.31" pos="6.74" lane="E4_0" slope="0.00"/>
        <vehicle id="204" x="-0.82" y="-0.25" angle="90.00" type="passenger" speed="0.38" pos="9.18" lane="E3_0" slope="0.00"/>
        <vehicle id="205" x="-3.37" y="-0.25" angle="90.00" type="passenger" speed="0.37" pos="6.63" lane="E3_0" slope="0.00"/>
    </timestep>
    <timestep time="2.60">
        <vehicle id="201" x="1.79" y="0.25" angle="270.00" type="passenger" speed="0.42" pos="8.21" lane="E5_0" slope="0.00"/>
        <vehicle id="202" x="-0.25" y="2.37" angle="180.00" type="passenger" speed="0.38" pos="7.63" lane="E4_0" slope="0.00"/>
        <vehicle id="203" x="-0.25" y="3.23" angle="180.00" type="passenger" speed="0.32" pos="6.77" lane="E4_0" slope="0.00"/>
        <vehicle id="204" x="-0.78" y="-0.25" angle="90.00" type="passenger" speed="0.39" pos="9.22" lane="E3_0" slope="0.00"/>
        <vehicle id="205" x="-3.33" y="-0.25" angle="90.00" type="passenger" speed="0.39" pos="6.67" lane="E3_0" slope="0.00"/>
    </timestep>
    <timestep time="2.70">
        <vehicle id="201" x="1.75" y="0.25" angle="270.00" type="passenger" speed="0.44" pos="8.25" lane="E5_0" slope="0.00"/>
        <vehicle id="202" x="-0.25" y="2.33" angle="180.00" type="passenger" speed="0.39" pos="7.67" lane="E4_0" slope="0.00"/>
        <vehicle id="203" x="-0.25" y="3.19" angle="180.00" type="passenger" speed="0.33" pos="6.81" lane="E4_0" slope="0.00"/>
        <vehicle id="204" x="-0.74" y="-0.25" angle="90.00" type="passenger" speed="0.41" pos="0.01" lane=":J7_10_0" slope="0.00"/>
        <vehicle id="205" x="-3.29" y="-0.25" angle="90.00" type="passenger" speed="0.41" pos="6.71" lane="E3_0" slope="0.00"/>
    </timestep>
    <timestep time="2.80">
        <vehicle id="201" x="1.70" y="0.25" angle="270.00" type="passenger" speed="0.46" pos="8.30" lane="E5_0" slope="0.00"/>
        <vehicle id="202" x="-0.25" y="2.29" angle="180.00" type="passenger" speed="0.41" pos="7.71" lane="E4_0" slope="0.00"/>
        <vehicle id="203" x="-0.25" y="3.16" angle="180.00" type="passenger" speed="0.34" pos="6.84" lane="E4_0" slope="0.00"/>
        <vehicle id="204" x="-0.70" y="-0.25" angle="90.00" type="passenger" speed="0.42" pos="0.05" lane=":J7_10_0" slope="0.00"/>
        <vehicle id="205" x="-3.25" y="-0.25" angle="90.00" type="passenger" speed="0.43" pos="6.75" lane="E3_0" slope="0.00"/>
    </timestep>
    <timestep time="2.90">
        <vehicle id="201" x="1.65" y="0.25" angle="270.00" type="passenger" speed="0.47" pos="8.35" lane="E5_0" slope="0.00"/>
        <vehicle id="202" x="-0.25" y="2.25" angle="180.00" type="passenger" speed="0.42" pos="7.75" lane="E4_0" slope="0.00"/>
        <vehicle id="203" x="-0.25" y="3.12" angle="180.00" type="passenger" speed="0.36" pos="6.88" lane="E4_0" slope="0.00"/>
        <vehicle id="204" x="-0.66" y="-0.25" angle="90.00" type="passenger" speed="0.43" pos="0.09" lane=":J7_10_0" slope="0.00"/>
        <vehicle id="205" x="-3.20" y="-0.25" angle="90.00" type="passenger" speed="0.44" pos="6.80" lane="E3_0" slope="0.00"/>
    </timestep>
    <timestep time="3.00">
        <vehicle id="201" x="1.61" y="0.25" angle="270.00" type="passenger" speed="0.48" pos="8.39" lane="E5_0" slope="0.00"/>
        <vehicle id="202" x="-0.25" y="2.21" angle="180.00" type="passenger" speed="0.41" pos="7.79" lane="E4_0" slope="0.00"/>
        <vehicle id="203" x="-0.25" y="3.09" angle="180.00" type="passenger" speed="0.36" pos="6.91" lane="E4_0" slope="0.00"/>
        <vehicle id="204" x="-0.61" y="-0.25" angle="90.00" type="passenger" speed="0.45" pos="0.14" lane=":J7_10_0" slope="0.00"/>
        <vehicle id="205" x="-3.16" y="-0.25" angle="90.00" type="passenger" speed="0.45" pos="6.84" lane="E3_0" slope="0.00"/>
    </timestep>
    <timestep time="3.10">
        <vehicle id="201" x="1.56" y="0.25" angle="270.00" type="passenger" speed="0.48" pos="8.44" lane="E5_0" slope="0.00"/>
        <vehicle id="202" x="-0.25" y="2.16" angle="180.00" type="passenger" speed="0.41" pos="7.84" lane="E4_0" slope="0.00"/>
        <vehicle id="203" x="-0.25" y="3.05" angle="180.00" type="passenger" speed="0.37" pos="6.95" lane="E4_0" slope="0.00"/>
        <vehicle id="204" x="-0.56" y="-0.25" angle="90.00" type="passenger" speed="0.46" pos="0.19" lane=":J7_10_0" slope="0.00"/>
        <vehicle id="205" x="-3.11" y="-0.25" angle="90.00" type="passenger" speed="0.46" pos="6.89" lane="E3_0" slope="0.00"/>
    </timestep>
    <timestep time="3.20">
        <vehicle id="201" x="1.51" y="0.25" angle="270.00" type="passenger" speed="0.47" pos="8.49" lane="E5_0" slope="0.00"/>
        <vehicle id="202" x="-0.25" y="2.12" angle="180.00" type="passenger" speed="0.41" pos="7.88" lane="E4_0" slope="0.00"/>
        <vehicle id="203" x="-0.25" y="3.01" angle="180.00" type="passenger" speed="0.37" pos="6.99" lane="E4_0" slope="0.00"/>
        <vehicle id="204" x="-0.52" y="-0.25" angle="90.00" type="passenger" speed="0.48" pos="0.23" lane=":J7_10_0" slope="0.00"/>
        <vehicle id="205" x="-3.07" y="-0.25" angle="90.00" type="passenger" speed="0.46" pos="6.93" lane="E3_0" slope="0.00"/>
    </timestep>
    <timestep time="3.30">
        <vehicle id="201" x="1.46" y="0.25" angle="270.00" type="passenger" speed="0.48" pos="8.54" lane="E5_0" slope="0.00"/>
        <vehicle id="202" x="-0.25" y="2.08" angle="180.00" type="passenger" speed="0.42" pos="7.92" lane="E4_0" slope="0.00"/>
        <vehicle id="203" x="-0.25" y="2.98" angle="180.00" type="passenger" speed="0.36" pos="7.02" lane="E4_0" slope="0.00"/>
        <vehicle id="204" x="-0.47" y="-0.25" angle="90.00" type="passenger" speed="0.47" pos="0.28" lane=":J7_10_0" slope="0.00"/>
        <vehicle id="205" x="-3.02" y="-0.25" angle="90.00" type="passenger" speed="0.46" pos="6.98" lane="E3_0" slope="0.00"/>
    </timestep>
    <timestep time="3.40">
        <vehicle id="201" x="1.42" y="0.25" angle="270.00" type="passenger" speed="0.47" pos="8.58" lane="E5_0" slope="0.00"/>
        <vehicle id="202" x="-0.25" y="2.04" angle="180.00" type="passenger" speed="0.42" pos="7.96" lane="E4_0" slope="0.00"/>
        <vehicle id="203" x="-0.25" y="2.94" angle="180.00" type="passenger" speed="0.38" pos="7.06" lane="E4_0" slope="0.00"/>
        <vehicle id="204" x="-0.42" y="-0.25" angle="90.00" type="passenger" speed="0.47" pos="0.33" lane=":J7_10_0" slope="0.00"/>
        <vehicle id="205" x="-2.98" y="-0.25" angle="90.00" type="passenger" speed="0.46" pos="7.02" lane="E3_0" slope="0.00"/>
    </timestep>
    <timestep time="3.50">
        <vehicle id="201" x="1.37" y="0.25" angle="270.00" type="passenger" speed="0.47" pos="8.63" lane="E5_0" slope="0.00"/>
        <vehicle id="202" x="-0.25" y="2.00" angle="180.00" type="passenger" speed="0.42" pos="8.00" lane="E4_0" slope="0.00"/>
        <vehicle id="203" x="-0.25" y="2.90" angle="180.00" type="passenger" speed="0.37" pos="7.10" lane="E4_0" slope="0.00"/>
        <vehicle id="204" x="-0.37" y="-0.25" angle="90.00" type="passenger" speed="0.48" pos="0.38" lane=":J7_10_0" slope="0.00"/>
        <vehicle id="205" x="-2.93" y="-0.25" angle="90.00" type="passenger" speed="0.46" pos="7.07" lane="E3_0" slope="0.00"/>
    </timestep>
    <timestep time="3.60">
        <vehicle id="201" x="1.32" y="0.25" angle="270.00" type="passenger" speed="0.47" pos="8.68" lane="E5_0" slope="0.00"/>
        <vehicle id="202" x="-0.25" y="1.96" angle="180.00" type="passenger" speed="0.41" pos="8.04" lane="E4_0" slope="0.00"/>
        <vehicle id="203" x="-0.25" y="2.86" angle="180.00" type="passenger" speed="0.37" pos="7.14" lane="E4_0" slope="0.00"/>
        <vehicle id="204" x="-0.33" y="-0.25" angle="90.00" type="passenger" speed="0.48" pos="0.42" lane=":J7_10_0" slope="0.00"/>
        <vehicle id="205" x="-2.88" y="-0.25" angle="90.00" type="passenger" speed="0.46" pos="7.12" lane="E3_0" slope="0.00"/>
    </timestep>
    <timestep time="3.70">
        <vehicle id="201" x="1.27" y="0.25" angle="270.00" type="passenger" speed="0.48" pos="8.73" lane="E5_0" slope="0.00"/>
        <vehicle id="202" x="-0.25" y="1.92" angle="180.00" type="passenger" speed="0.42" pos="8.08" lane="E4_0" slope="0.00"/>
        <vehicle id="203" x="-0.25" y="2.83" angle="180.00" type="passenger" speed="0.37" pos="7.17" lane="E4_0" slope="0.00"/>
        <vehicle id="204" x="-0.28" y="-0.25" angle="90.00" type="passenger" speed="0.48" pos="0.47" lane=":J7_10_0" slope="0.00"/>
        <vehicle id="205" x="-2.84" y="-0.25" angle="90.00" type="passenger" speed="0.46" pos="7.16" lane="E3_0" slope="0.00"/>
    </timestep>
    <timestep time="3.80">
        <vehicle id="201" x="1.23" y="0.25" angle="270.00" type="passenger" speed="0.48" pos="8.77" lane="E5_0" slope="0.00"/>
        <vehicle id="202" x="-0.25" y="1.87" angle="180.00" type="passenger" speed="0.41" pos="8.13" lane="E4_0" slope="0.00"/>
        <vehicle id="203" x="-0.25" y="2.79" angle="180.00" type="passenger" speed="0.38" pos="7.21" lane="E4_0" slope="0.00"/>
        <vehicle id="204" x="-0.23" y="-0.25" angle="90.00" type="passenger" speed="0.48" pos="0.52" lane=":J7_10_0" slope="0.00"/>
        <vehicle id="205" x="-2.79" y="-0.25" angle="90.00" type="passenger" speed="0.46" pos="7.21" lane="E3_0" slope="0.00"/>
    </timestep>
    <timestep time="3.90">
        <vehicle id="201" x="1.18" y="0.25" angle="270.00" type="passenger" speed="0.47" pos="8.82" lane="E5_0" slope="0.00"/>
        <vehicle id="202" x="-0.25" y="1.83" angle="180.00" type="passenger" speed="0.41" pos="8.17" lane="E4_0" slope="0.00"/>
        <vehicle id="203" x="-0.25" y="2.75" angle="180.00" type="passenger" speed="0.38" pos="7.25" lane="E4_0" slope="0.00"/>
        <vehicle id="204" x="-0.18" y="-0.25" angle="90.00" type="passenger" speed="0.48" pos="0.57" lane=":J7_10_0" slope="0.00"/>
        <vehicle id="205" x="-2.74" y="-0.25" angle="90.00" type="passenger" speed="0.46" pos="7.26" lane="E3_0" slope="0.00"/>
    </timestep>
    <timestep time="4.00">
        <vehicle id="201" x="1.13" y="0.25" angle="270.00" type="passenger" speed="0.48" pos="8.87" lane="E5_0" slope="0.00"/>
        <vehicle id="202" x="-0.25" y="1.79" angle="180.00" type="passenger" speed="0.41" pos="8.21" lane="E4_0" slope="0.00"/>
        <vehicle id="203" x="-0.25" y="2.71" angle="180.00" type="passenger" speed="0.37" pos="7.29" lane="E4_0" slope="0.00"/>
        <vehicle id="204" x="-0.14" y="-0.25" angle="90.00" type="passenger" speed="0.47" pos="0.61" lane=":J7_10_0" slope="0.00"/>
        <vehicle id="205" x="-2.70" y="-0.25" angle="90.00" type="passenger" speed="0.46" pos="7.30" lane="E3_0" slope="0.00"/>
    </timestep>
    <timestep time="4.10">
        <vehicle id="201" x="1.08" y="0.25" angle="270.00" type="passenger" speed="0.47" pos="8.92" lane="E5_0" slope="0.00"/>
        <vehicle id="202" x="-0.25" y="1.75" angle="180.00" type="passenger" speed="0.41" pos="8.25" lane="E4_0" slope="0.00"/>
        <vehicle id="203" x="-0.25" y="2.68" angle="180.00" type="passenger" speed="0.37" pos="7.32" lane="E4_0" slope="0.00"/>
        <vehicle id="204" x="-0.09" y="-0.25" angle="90.00" type="passenger" speed="0.48" pos="0.66" lane=":J7_10_0" slope="0.00"/>
        <vehicle id="205" x="-2.65" y="-0.25" angle="90.00" type="passenger" speed="0.46" pos="7.35" lane="E3_0" slope="0.00"/>
    </timestep>
    <timestep time="4.20">
        <vehicle id="201" x="1.04" y="0.25" angle="270.00" type="passenger" speed="0.47" pos="8.96" lane="E5_0" slope="0.00"/>
        <vehicle id="202" x="-0.25" y="1.71" angle="180.00" type="passenger" speed="0.41" pos="8.29" lane="E4_0" slope="0.00"/>
        <vehicle id="203" x="-0.25" y="2.64" angle="180.00" type="passenger" speed="0.38" pos="7.36" lane="E4_0" slope="0.00"/>
        <vehicle id="204" x="-0.04" y="-0.25" angle="90.00" type="passenger" speed="0.47" pos="0.71" lane=":J7_10_0" slope="0.00"/>
        <vehicle id="205" x="-2.61" y="-0.25" angle="90.00" type="passenger" speed="0.46" pos="7.39" lane="E3_0" slope="0.00"/>
    </timestep>
    <timestep time="4.30">