<?xml version="1.0" encoding="UTF-8"?>

<!-- generated on 2024-06-21 12:45:38 by Eclipse SUMO sumo Version 1.20.0
<configuration xmlns:xsi="http://www.w3.org/2001/XMLSchema-instance" xsi:noNamespaceSchemaLocation="http://sumo.dlr.de/xsd/sumoConfiguration.xsd">

    <input>
        <net-file value="scenarios/conv_scenario_85/real_world.net.xml"/>
        <route-files value="scenarios/conv_scenario_85/real_world.vehicles.rou.xml"/>
        <additional-files value="scenarios/conv_scenario_85/real_world.add.xml"/>
    </input>

    <output>
        <fcd-output value="scenarios/conv_scenario_85/fcd.xml"/>
        <lanechange-output value="scenarios/conv_scenario_85/output_lanechange.txt"/>
    </output>

    <time>
        <begin value="0"/>
        <step-length value="0.1"/>
    </time>

    <processing>
        <time-to-teleport value="-1"/>
        <lanechange.duration value="15"/>
    </processing>

    <report>
        <verbose value="true"/>
        <no-step-log value="true"/>
    </report>

</configuration>
-->

<fcd-export xmlns:xsi="http://www.w3.org/2001/XMLSchema-instance" xsi:noNamespaceSchemaLocation="http://sumo.dlr.de/xsd/fcd_file.xsd">
    <timestep time="0.00"/>
    <timestep time="0.10">
        <vehicle id="201" x="5.04" y="0.30" angle="270.00" type="passenger" speed="0.00" pos="4.96" lane="E5_0" slope="0.00"/>
        <vehicle id="202" x="-0.30" y="5.74" angle="180.00" type="passenger" speed="0.00" pos="4.26" lane="E4_0" slope="0.00"/>
        <vehicle id="203" x="-2.58" y="-0.30" angle="90.00" type="passenger" speed="0.00" pos="7.42" lane="E3_0" slope="0.00"/>
        <vehicle id="204" x="-4.25" y="-0.30" angle="90.00" type="passenger" speed="0.00" pos="5.75" lane="E3_0" slope="0.00"/>
        <vehicle id="205" x="-6.07" y="-0.30" angle="90.00" type="passenger" speed="0.00" pos="3.93" lane="E3_0" slope="0.00"/>
        <vehicle id="206" x="-7.36" y="-0.30" angle="90.00" type="passenger" speed="0.00" pos="2.64" lane="E3_0" slope="0.00"/>
    </timestep>
    <timestep time="0.20">
        <vehicle id="201" x="5.04" y="0.30" angle="270.00" type="passenger" speed="0.02" pos="4.96" lane="E5_0" slope="0.00"/>
        <vehicle id="202" x="-0.30" y="5.74" angle="180.00" type="passenger" speed="0.02" pos="4.26" lane="E4_0" slope="0.00"/>
        <vehicle id="203" x="-2.58" y="-0.30" angle="90.00" type="passenger" speed="0.02" pos="7.42" lane="E3_0" slope="0.00"/>
        <vehicle id="204" x="-4.25" y="-0.30" angle="90.00" type="passenger" speed="0.02" pos="5.75" lane="E3_0" slope="0.00"/>
        <vehicle id="205" x="-6.07" y="-0.30" angle="90.00" type="passenger" speed="0.02" pos="3.93" lane="E3_0" slope="0.00"/>
        <vehicle id="206" x="-7.36" y="-0.30" angle="90.00" type="passenger" speed="0.02" pos="2.64" lane="E3_0" slope="0.00"/>
    </timestep>
    <timestep time="0.30">
        <vehicle id="201" x="5.04" y="0.30" angle="270.00" type="passenger" speed="0.04" pos="4.96" lane="E5_0" slope="0.00"/>
        <vehicle id="202" x="-0.30" y="5.73" angle="180.00" type="passenger" speed="0.04" pos="4.27" lane="E4_0" slope="0.00"/>
        <vehicle id="203" x="-2.57" y="-0.30" angle="90.00" type="passenger" speed="0.04" pos="7.43" lane="E3_0" slope="0.00"/>
        <vehicle id="204" x="-4.24" y="-0.30" angle="90.00" type="passenger" speed="0.04" pos="5.76" lane="E3_0" slope="0.00"/>
        <vehicle id="205" x="-6.07" y="-0.30" angle="90.00" type="passenger" speed="0.04" pos="3.93" lane="E3_0" slope="0.00"/>
        <vehicle id="206" x="-7.36" y="-0.30" angle="90.00" type="passenger" speed="0.04" pos="2.64" lane="E3_0" slope="0.00"/>
    </timestep>
    <timestep time="0.40">
        <vehicle id="201" x="5.03" y="0.30" angle="270.00" type="passenger" speed="0.06" pos="4.97" lane="E5_0" slope="0.00"/>
        <vehicle id="202" x="-0.30" y="5.73" angle="180.00" type="passenger" speed="0.05" pos="4.27" lane="E4_0" slope="0.00"/>
        <vehicle id="203" x="-2.57" y="-0.30" angle="90.00" type="passenger" speed="0.06" pos="7.43" lane="E3_0" slope="0.00"/>
        <vehicle id="204" x="-4.24" y="-0.30" angle="90.00" type="passenger" speed="0.06" pos="5.76" lane="E3_0" slope="0.00"/>
        <vehicle id="205" x="-6.06" y="-0.30" angle="90.00" type="passenger" speed="0.06" pos="3.94" lane="E3_0" slope="0.00"/>
        <vehicle id="206" x="-7.35" y="-0.30" angle="90.00" type="passenger" speed="0.06" pos="2.65" lane="E3_0" slope="0.00"/>
    </timestep>
    <timestep time="0.50">
        <vehicle id="201" x="5.02" y="0.30" angle="270.00" type="passenger" speed="0.08" pos="4.98" lane="E5_0" slope="0.00"/>
        <vehicle id="202" x="-0.30" y="5.72" angle="180.00" type="passenger" speed="0.07" pos="4.28" lane="E4_0" slope="0.00"/>
        <vehicle id="203" x="-2.56" y="-0.30" angle="90.00" type="passenger" speed="0.07" pos="7.44" lane="E3_0" slope="0.00"/>
        <vehicle id="204" x="-4.23" y="-0.30" angle="90.00" type="passenger" speed="0.08" pos="5.77" lane="E3_0" slope="0.00"/>
        <vehicle id="205" x="-6.06" y="-0.30" angle="90.00" type="passenger" speed="0.08" pos="3.94" lane="E3_0" slope="0.00"/>
        <vehicle id="206" x="-7.35" y="-0.30" angle="90.00" type="passenger" speed="0.07" pos="2.65" lane="E3_0" slope="0.00"/>
    </timestep>
    <timestep time="0.60">
        <vehicle id="201" x="5.01" y="0.30" angle="270.00" type="passenger" speed="0.10" pos="4.99" lane="E5_0" slope="0.00"/>
        <vehicle id="202" x="-0.30" y="5.71" angle="180.00" type="passenger" speed="0.09" pos="4.29" lane="E4_0" slope="0.00"/>
        <vehicle id="203" x="-2.55" y="-0.30" angle="90.00" type="passenger" speed="0.09" pos="7.45" lane="E3_0" slope="0.00"/>
        <vehicle id="204" x="-4.22" y="-0.30" angle="90.00" type="passenger" speed="0.09" pos="5.78" lane="E3_0" slope="0.00"/>
        <vehicle id="205" x="-6.05" y="-0.30" angle="90.00" type="passenger" speed="0.09" pos="3.95" lane="E3_0" slope="0.00"/>
        <vehicle id="206" x="-7.34" y="-0.30" angle="90.00" type="passenger" speed="0.09" pos="2.66" lane="E3_0" slope="0.00"/>
    </timestep>
    <timestep time="0.70">
        <vehicle id="201" x="5.00" y="0.30" angle="270.00" type="passenger" speed="0.11" pos="5.00" lane="E5_0" slope="0.00"/>
        <vehicle id="202" x="-0.30" y="5.70" angle="180.00" type="passenger" speed="0.11" pos="4.30" lane="E4_0" slope="0.00"/>
        <vehicle id="203" x="-2.54" y="-0.30" angle="90.00" type="passenger" speed="0.11" pos="7.46" lane="E3_0" slope="0.00"/>
        <vehicle id="204" x="-4.21" y="-0.30" angle="90.00" type="passenger" speed="0.11" pos="5.79" lane="E3_0" slope="0.00"/>
        <vehicle id="205" x="-6.03" y="-0.30" angle="90.00" type="passenger" speed="0.11" pos="3.97" lane="E3_0" slope="0.00"/>
        <vehicle id="206" x="-7.33" y="-0.30" angle="90.00" type="passenger" speed="0.11" pos="2.67" lane="E3_0" slope="0.00"/>
    </timestep>
    <timestep time="0.80">
        <vehicle id="201" x="4.99" y="0.30" angle="270.00" type="passenger" speed="0.13" pos="5.01" lane="E5_0" slope="0.00"/>
        <vehicle id="202" x="-0.30" y="5.68" angle="180.00" type="passenger" speed="0.13" pos="4.32" lane="E4_0" slope="0.00"/>
        <vehicle id="203" x="-2.53" y="-0.30" angle="90.00" type="passenger" speed="0.12" pos="7.47" lane="E3_0" slope="0.00"/>
        <vehicle id="204" x="-4.20" y="-0.30" angle="90.00" type="passenger" speed="0.13" pos="5.80" lane="E3_0" slope="0.00"/>
        <vehicle id="205" x="-6.02" y="-0.30" angle="90.00" type="passenger" speed="0.13" pos="3.98" lane="E3_0" slope="0.00"/>
        <vehicle id="206" x="-7.31" y="-0.30" angle="90.00" type="passenger" speed="0.12" pos="2.69" lane="E3_0" slope="0.00"/>
    </timestep>
    <timestep time="0.90">
        <vehicle id="201" x="4.97" y="0.30" angle="270.00" type="passenger" speed="0.15" pos="5.03" lane="E5_0" slope="0.00"/>
        <vehicle id="202" x="-0.30" y="5.67" angle="180.00" type="passenger" speed="0.15" pos="4.33" lane="E4_0" slope="0.00"/>
        <vehicle id="203" x="-2.51" y="-0.30" angle="90.00" type="passenger" speed="0.14" pos="7.49" lane="E3_0" slope="0.00"/>
        <vehicle id="204" x="-4.18" y="-0.30" angle="90.00" type="passenger" speed="0.14" pos="5.82" lane="E3_0" slope="0.00"/>
        <vehicle id="205" x="-6.01" y="-0.30" angle="90.00" type="passenger" speed="0.14" pos="3.99" lane="E3_0" slope="0.00"/>
        <vehicle id="206" x="-7.30" y="-0.30" angle="90.00" type="passenger" speed="0.14" pos="2.70" lane="E3_0" slope="0.00"/>
    </timestep>
    <timestep time="1.00">
        <vehicle id="201" x="4.96" y="0.30" angle="270.00" type="passenger" speed="0.17" pos="5.04" lane="E5_0" slope="0.00"/>
        <vehicle id="202" x="-0.30" y="5.65" angle="180.00" type="passenger" speed="0.16" pos="4.35" lane="E4_0" slope="0.00"/>
        <vehicle id="203" x="-2.50" y="-0.30" angle="90.00" type="passenger" speed="0.16" pos="7.50" lane="E3_0" slope="0.00"/>
        <vehicle id="204" x="-4.17" y="-0.30" angle="90.00" type="passenger" speed="0.16" pos="5.83" lane="E3_0" slope="0.00"/>
        <vehicle id="205" x="-5.99" y="-0.30" angle="90.00" type="passenger" speed="0.16" pos="4.01" lane="E3_0" slope="0.00"/>
        <vehicle id="206" x="-7.28" y="-0.30" angle="90.00" type="passenger" speed="0.15" pos="2.72" lane="E3_0" slope="0.00"/>
    </timestep>
    <timestep time="1.10">
        <vehicle id="201" x="4.94" y="0.30" angle="270.00" type="passenger" speed="0.18" pos="5.06" lane="E5_0" slope="0.00"/>
        <vehicle id="202" x="-0.30" y="5.64" angle="180.00" type="passenger" speed="0.18" pos="4.36" lane="E4_0" slope="0.00"/>
        <vehicle id="203" x="-2.48" y="-0.30" angle="90.00" type="passenger" speed="0.17" pos="7.52" lane="E3_0" slope="0.00"/>
        <vehicle id="204" x="-4.15" y="-0.30" angle="90.00" type="passenger" speed="0.18" pos="5.85" lane="E3_0" slope="0.00"/>
        <vehicle id="205" x="-5.97" y="-0.30" angle="90.00" type="passenger" speed="0.18" pos="4.03" lane="E3_0" slope="0.00"/>
        <vehicle id="206" x="-7.27" y="-0.30" angle="90.00" type="passenger" speed="0.17" pos="2.73" lane="E3_0" slope="0.00"/>
    </timestep>
    <timestep time="1.20">
        <vehicle id="201" x="4.92" y="0.30" angle="270.00" type="passenger" speed="0.20" pos="5.08" lane="E5_0" slope="0.00"/>
        <vehicle id="202" x="-0.30" y="5.62" angle="180.00" type="passenger" speed="0.20" pos="4.38" lane="E4_0" slope="0.00"/>
        <vehicle id="203" x="-2.46" y="-0.30" angle="90.00" type="passenger" speed="0.19" pos="7.54" lane="E3_0" slope="0.00"/>
        <vehicle id="204" x="-4.13" y="-0.30" angle="90.00" type="passenger" speed="0.19" pos="5.87" lane="E3_0" slope="0.00"/>
        <vehicle id="205" x="-5.95" y="-0.30" angle="90.00" type="passenger" speed="0.19" pos="4.05" lane="E3_0" slope="0.00"/>
        <vehicle id="206" x="-7.25" y="-0.30" angle="90.00" type="passenger" speed="0.18" pos="2.75" lane="E3_0" slope="0.00"/>
    </timestep>
    <timestep time="1.30">
        <vehicle id="201" x="4.90" y="0.30" angle="270.00" type="passenger" speed="0.22" pos="5.10" lane="E5_0" slope="0.00"/>
        <vehicle id="202" x="-0.30" y="5.59" angle="180.00" type="passenger" speed="0.22" pos="4.41" lane="E4_0" slope="0.00"/>
        <vehicle id="203" x="-2.44" y="-0.30" angle="90.00" type="passenger" speed="0.20" pos="7.56" lane="E3_0" slope="0.00"/>
        <vehicle id="204" x="-4.11" y="-0.30" angle="90.00" type="passenger" speed="0.21" pos="5.89" lane="E3_0" slope="0.00"/>
        <vehicle id="205" x="-5.93" y="-0.30" angle="90.00" type="passenger" speed="0.20" pos="4.07" lane="E3_0" slope="0.00"/>
        <vehicle id="206" x="-7.23" y="-0.30" angle="90.00" type="passenger" speed="0.19" pos="2.77" lane="E3_0" slope="0.00"/>
    </timestep>
    <timestep time="1.40">
        <vehicle id="201" x="4.87" y="0.30" angle="270.00" type="passenger" speed="0.23" pos="5.13" lane="E5_0" slope="0.00"/>
        <vehicle id="202" x="-0.30" y="5.57" angle="180.00" type="passenger" speed="0.23" pos="4.43" lane="E4_0" slope="0.00"/>
        <vehicle id="203" x="-2.42" y="-0.30" angle="90.00" type="passenger" speed="0.21" pos="7.58" lane="E3_0" slope="0.00"/>
        <vehicle id="204" x="-4.09" y="-0.30" angle="90.00" type="passenger" speed="0.22" pos="5.91" lane="E3_0" slope="0.00"/>
        <vehicle id="205" x="-5.91" y="-0.30" angle="90.00" type="passenger" speed="0.22" pos="4.09" lane="E3_0" slope="0.00"/>
        <vehicle id="206" x="-7.21" y="-0.30" angle="90.00" type="passenger" speed="0.21" pos="2.79" lane="E3_0" slope="0.00"/>
    </timestep>
    <timestep time="1.50">
        <vehicle id="201" x="4.85" y="0.30" angle="270.00" type="passenger" speed="0.25" pos="5.15" lane="E5_0" slope="0.00"/>
        <vehicle id="202" x="-0.30" y="5.55" angle="180.00" type="passenger" speed="0.25" pos="4.45" lane="E4_0" slope="0.00"/>
        <vehicle id="203" x="-2.40" y="-0.30" angle="90.00" type="passenger" speed="0.23" pos="7.60" lane="E3_0" slope="0.00"/>
        <vehicle id="204" x="-4.06" y="-0.30" angle="90.00" type="passenger" speed="0.24" pos="5.94" lane="E3_0" slope="0.00"/>
        <vehicle id="205" x="-5.89" y="-0.30" angle="90.00" type="passenger" speed="0.23" pos="4.11" lane="E3_0" slope="0.00"/>
        <vehicle id="206" x="-7.19" y="-0.30" angle="90.00" type="passenger" speed="0.23" pos="2.81" lane="E3_0" slope="0.00"/>
    </timestep>
    <timestep time="1.60">
        <vehicle id="201" x="4.82" y="0.30" angle="270.00" type="passenger" speed="0.27" pos="5.18" lane="E5_0" slope="0.00"/>
        <vehicle id="202" x="-0.30" y="5.52" angle="180.00" type="passenger" speed="0.26" pos="4.48" lane="E4_0" slope="0.00"/>
        <vehicle id="203" x="-2.37" y="-0.30" angle="90.00" type="passenger" speed="0.25" pos="7.63" lane="E3_0" slope="0.00"/>
        <vehicle id="204" x="-4.04" y="-0.30" angle="90.00" type="passenger" speed="0.25" pos="5.96" lane="E3_0" slope="0.00"/>
        <vehicle id="205" x="-5.86" y="-0.30" angle="90.00" type="passenger" speed="0.25" pos="4.14" lane="E3_0" slope="0.00"/>
        <vehicle id="206" x="-7.16" y="-0.30" angle="90.00" type="passenger" speed="0.25" pos="2.84" lane="E3_0" slope="0.00"/>
    </timestep>
    <timestep time="1.70">
        <vehicle id="201" x="4.79" y="0.30" angle="270.00" type="passenger" speed="0.29" pos="5.21" lane="E5_0" slope="0.00"/>
        <vehicle id="202" x="-0.30" y="5.49" angle="180.00" type="passenger" speed="0.27" pos="4.51" lane="E4_0" slope="0.00"/>
        <vehicle id="203" x="-2.35" y="-0.30" angle="90.00" type="passenger" speed="0.27" pos="7.65" lane="E3_0" slope="0.00"/>
        <vehicle id="204" x="-4.01" y="-0.30" angle="90.00" type="passenger" speed="0.26" pos="5.99" lane="E3_0" slope="0.00"/>
        <vehicle id="205" x="-5.84" y="-0.30" angle="90.00" type="passenger" speed="0.26" pos="4.16" lane="E3_0" slope="0.00"/>
        <vehicle id="206" x="-7.14" y="-0.30" angle="90.00" type="passenger" speed="0.26" pos="2.86" lane="E3_0" slope="0.00"/>
    </timestep>
    <timestep time="1.80">
        <vehicle id="201" x="4.76" y="0.30" angle="270.00" type="passenger" speed="0.30" pos="5.24" lane="E5_0" slope="0.00"/>
        <vehicle id="202" x="-0.30" y="5.46" angle="180.00" type="passenger" speed="0.29" pos="4.54" lane="E4_0" slope="0.00"/>
        <vehicle id="203" x="-2.32" y="-0.30" angle="90.00" type="passenger" speed="0.28" pos="7.68" lane="E3_0" slope="0.00"/>
        <vehicle id="204" x="-3.98" y="-0.30" angle="90.00" type="passenger" speed="0.28" pos="6.02" lane="E3_0" slope="0.00"/>
        <vehicle id="205" x="-5.81" y="-0.30" angle="90.00" type="passenger" speed="0.28" pos="4.19" lane="E3_0" slope="0.00"/>
        <vehicle id="206" x="-7.11" y="-0.30" angle="90.00" type="passenger" speed="0.28" pos="2.89" lane="E3_0" slope="0.00"/>
    </timestep>
    <timestep time="1.90">
        <vehicle id="201" x="4.73" y="0.30" angle="270.00" type="passenger" speed="0.31" pos="5.27" lane="E5_0" slope="0.00"/>
        <vehicle id="202" x="-0.30" y="5.43" angle="180.00" type="passenger" speed="0.30" pos="4.57" lane="E4_0" slope="0.00"/>
        <vehicle id="203" x="-2.29" y="-0.30" angle="90.00" type="passenger" speed="0.30" pos="7.71" lane="E3_0" slope="0.00"/>
        <vehicle id="204" x="-3.95" y="-0.30" angle="90.00" type="passenger" speed="0.29" pos="6.05" lane="E3_0" slope="0.00"/>
        <vehicle id="205" x="-5.78" y="-0.30" angle="90.00" type="passenger" speed="0.30" pos="4.22" lane="E3_0" slope="0.00"/>
        <vehicle id="206" x="-7.08" y="-0.30" angle="90.00" type="passenger" speed="0.29" pos="2.92" lane="E3_0" slope="0.00"/>
    </timestep>
    <timestep time="2.00">
        <vehicle id="201" x="4.70" y="0.30" angle="270.00" type="passenger" speed="0.33" pos="5.30" lane="E5_0" slope="0.00"/>
        <vehicle id="202" x="-0.30" y="5.40" angle="180.00" type="passenger" speed="0.32" pos="4.60" lane="E4_0" slope="0.00"/>
        <vehicle id="203" x="-2.26" y="-0.30" angle="90.00" type="passenger" speed="0.32" pos="7.74" lane="E3_0" slope="0.00"/>
        <vehicle id="204" x="-3.92" y="-0.30" angle="90.00" type="passenger" speed="0.31" pos="6.08" lane="E3_0" slope="0.00"/>
        <vehicle id="205" x="-5.75" y="-0.30" angle="90.00" type="passenger" speed="0.31" pos="4.25" lane="E3_0" slope="0.00"/>
        <vehicle id="206" x="-7.05" y="-0.30" angle="90.00" type="passenger" speed="0.31" pos="2.95" lane="E3_0" slope="0.00"/>
    </timestep>
    <timestep time="2.10">
        <vehicle id="201" x="4.66" y="0.30" angle="270.00" type="passenger" speed="0.35" pos="5.34" lane="E5_0" slope="0.00"/>
        <vehicle id="202" x="-0.30" y="5.37" angle="180.00" type="passenger" speed="0.33" pos="4.63" lane="E4_0" slope="0.00"/>
        <vehicle id="203" x="-2.22" y="-0.30" angle="90.00" type="passenger" speed="0.34" pos="7.78" lane="E3_0" slope="0.00"/>
        <vehicle id="204" x="-3.89" y="-0.30" angle="90.00" type="passenger" speed="0.32" pos="6.11" lane="E3_0" slope="0.00"/>
        <vehicle id="205" x="-5.72" y="-0.30" angle="90.00" type="passenger" speed="0.33" pos="4.28" lane="E3_0" slope="0.00"/>
        <vehicle id="206" x="-7.01" y="-0.30" angle="90.00" type="passenger" speed="0.33" pos="2.99" lane="E3_0" slope="0.00"/>
    </timestep>
    <timestep time="2.20">
        <vehicle id="201" x="4.62" y="0.30" angle="270.00" type="passenger" speed="0.37" pos="5.38" lane="E5_0" slope="0.00"/>
        <vehicle id="202" x="-0.30" y="5.34" angle="180.00" type="passenger" speed="0.34" pos="4.66" lane="E4_0" slope="0.00"/>
        <vehicle id="203" x="-2.19" y="-0.30" angle="90.00" type="passenger" speed="0.35" pos="7.81" lane="E3_0" slope="0.00"/>
        <vehicle id="204" x="-3.86" y="-0.30" angle="90.00" type="passenger" speed="0.34" pos="6.14" lane="E3_0" slope="0.00"/>
        <vehicle id="205" x="-5.68" y="-0.30" angle="90.00" type="passenger" speed="0.35" pos="4.32" lane="E3_0" slope="0.00"/>
        <vehicle id="206" x="-6.98" y="-0.30" angle="90.00" type="passenger" speed="0.34" pos="3.02" lane="E3_0" slope="0.00"/>
    </timestep>
    <timestep time="2.30">
        <vehicle id="201" x="4.59" y="0.30" angle="270.00" type="passenger" speed="0.38" pos="5.41" lane="E5_0" slope="0.00"/>
        <vehicle id="202" x="-0.30" y="5.30" angle="180.00" type="passenger" speed="0.35" pos="4.70" lane="E4_0" slope="0.00"/>
        <vehicle id="203" x="-2.15" y="-0.30" angle="90.00" type="passenger" speed="0.37" pos="7.85" lane="E3_0" slope="0.00"/>
        <vehicle id="204" x="-3.82" y="-0.30" angle="90.00" type="passenger" speed="0.35" pos="6.18" lane="E3_0" slope="0.00"/>
        <vehicle id="205" x="-5.65" y="-0.30" angle="90.00" type="passenger" speed="0.36" pos="4.35" lane="E3_0" slope="0.00"/>
        <vehicle id="206" x="-6.94" y="-0.30" angle="90.00" type="passenger" speed="0.35" pos="3.06" lane="E3_0" slope="0.00"/>
    </timestep>
    <timestep time="2.40">
        <vehicle id="201" x="4.55" y="0.30" angle="270.00" type="passenger" speed="0.39" pos="5.45" lane="E5_0" slope="0.00"/>
        <vehicle id="202" x="-0.30" y="5.26" angle="180.00" type="passenger" speed="0.37" pos="4.74" lane="E4_0" slope="0.00"/>
        <vehicle id="203" x="-2.11" y="-0.30" angle="90.00" type="passenger" speed="0.38" pos="7.89" lane="E3_0" slope="0.00"/>
        <vehicle id="204" x="-3.79" y="-0.30" angle="90.00" type="passenger" speed="0.36" pos="6.21" lane="E3_0" slope="0.00"/>
        <vehicle id="205" x="-5.61" y="-0.30" angle="90.00" type="passenger" speed="0.37" pos="4.39" lane="E3_0" slope="0.00"/>
        <vehicle id="206" x="-6.91" y="-0.30" angle="90.00" type="passenger" speed="0.36" pos="3.09" lane="E3_0" slope="0.00"/>
    </timestep>
    <timestep time="2.50">
        <vehicle id="201" x="4.51" y="0.30" angle="270.00" type="passenger" speed="0.41" pos="5.49" lane="E5_0" slope="0.00"/>
        <vehicle id="202" x="-0.30" y="5.22" angle="180.00" type="passenger" speed="0.39" pos="4.78" lane="E4_0" slope="0.00"/>
        <vehicle id="203" x="-2.07" y="-0.30" angle="90.00" type="passenger" speed="0.39" pos="7.93" lane="E3_0" slope="0.00"/>
        <vehicle id="204" x="-3.75" y="-0.30" angle="90.00" type="passenger" speed="0.37" pos="6.25" lane="E3_0" slope="0.00"/>
        <vehicle id="205" x="-5.57" y="-0.30" angle="90.00" type="passenger" speed="0.38" pos="4.43" lane="E3_0" slope="0.00"/>
        <vehicle id="206" x="-6.87" y="-0.30" angle="90.00" type="passenger" speed="0.36" pos="3.13" lane="E3_0" slope="0.00"/>
    </timestep>
    <timestep time="2.60">
        <vehicle id="201" x="4.46" y="0.30" angle="270.00" type="passenger" speed="0.42" pos="5.54" lane="E5_0" slope="0.00"/>
        <vehicle id="202" x="-0.30" y="5.18" angle="180.00" type="passenger" speed="0.40" pos="4.82" lane="E4_0" slope="0.00"/>
        <vehicle id="203" x="-2.03" y="-0.30" angle="90.00" type="passenger" speed="0.41" pos="7.97" lane="E3_0" slope="0.00"/>
        <vehicle id="204" x="-3.71" y="-0.30" angle="90.00" type="passenger" speed="0.39" pos="6.29" lane="E3_0" slope="0.00"/>
        <vehicle id="205" x="-5.53" y="-0.30" angle="90.00" type="passenger" speed="0.40" pos="4.47" lane="E3_0" slope="0.00"/>
        <vehicle id="206" x="-6.84" y="-0.30" angle="90.00" type="passenger" speed="0.37" pos="3.16" lane="E3_0" slope="0.00"/>
    </timestep>
    <timestep time="2.70">
        <vehicle id="201" x="4.42" y="0.30" angle="270.00" type="passenger" speed="0.44" pos="5.58" lane="E5_0" slope="0.00"/>
        <vehicle id="202" x="-0.30" y="5.14" angle="180.00" type="passenger" speed="0.41" pos="4.86" lane="E4_0" slope="0.00"/>
        <vehicle id="203" x="-1.99" y="-0.30" angle="90.00" type="passenger" speed="0.42" pos="8.01" lane="E3_0" slope="0.00"/>
        <vehicle id="204" x="-3.67" y="-0.30" angle="90.00" type="passenger" speed="0.40" pos="6.33" lane="E3_0" slope="0.00"/>
        <vehicle id="205" x="-5.49" y="-0.30" angle="90.00" type="passenger" speed="0.41" pos="4.51" lane="E3_0" slope="0.00"/>
        <vehicle id="206" x="-6.80" y="-0.30" angle="90.00" type="passenger" speed="0.36" pos="3.20" lane="E3_0" slope="0.00"/>
    </timestep>
    <timestep time="2.80">
        <vehicle id="201" x="4.37" y="0.30" angle="270.00" type="passenger" speed="0.46" pos="5.63" lane="E5_0" slope="0.00"/>
        <vehicle id="202" x="-0.30" y="5.10" angle="180.00" type="passenger" speed="0.41" pos="4.90" lane="E4_0" slope="0.00"/>
        <vehicle id="203" x="-1.95" y="-0.30" angle="90.00" type="passenger" speed="0.44" pos="8.05" lane="E3_0" slope="0.00"/>
        <vehicle id="204" x="-3.63" y="-0.30" angle="90.00" type="passenger" speed="0.41" pos="6.37" lane="E3_0" slope="0.00"/>
        <vehicle id="205" x="-5.45" y="-0.30" angle="90.00" type="passenger" speed="0.42" pos="4.55" lane="E3_0" slope="0.00"/>
        <vehicle id="206" x="-6.76" y="-0.30" angle="90.00" type="passenger" speed="0.36" pos="3.24" lane="E3_0" slope="0.00"/>
    </timestep>
    <timestep time="2.90">
        <vehicle id="201" x="4.33" y="0.30" angle="270.00" type="passenger" speed="0.47" pos="5.67" lane="E5_0" slope="0.00"/>
        <vehicle id="202" x="-0.30" y="5.06" angle="180.00" type="passenger" speed="0.42" pos="4.94" lane="E4_0" slope="0.00"/>
        <vehicle id="203" x="-1.90" y="-0.30" angle="90.00" type="passenger" speed="0.45" pos="8.10" lane="E3_0" slope="0.00"/>
        <vehicle id="204" x="-3.59" y="-0.30" angle="90.00" type="passenger" speed="0.43" pos="6.41" lane="E3_0" slope="0.00"/>
        <vehicle id="205" x="-5.40" y="-0.30" angle="90.00" type="passenger" speed="0.44" pos="4.60" lane="E3_0" slope="0.00"/>
        <vehicle id="206" x="-6.73" y="-0.30" angle="90.00" type="passenger" speed="0.36" pos="3.27" lane="E3_0" slope="0.00"/>
    </timestep>
    <timestep time="3.00">
        <vehicle id="201" x="4.28" y="0.30" angle="270.00" type="passenger" speed="0.48" pos="5.72" lane="E5_0" slope="0.00"/>
        <vehicle id="202" x="-0.30" y="5.02" angle="180.00" type="passenger" speed="0.42" pos="4.98" lane="E4_0" slope="0.00"/>
        <vehicle id="203" x="-1.86" y="-0.30" angle="90.00" type="passenger" speed="0.45" pos="8.14" lane="E3_0" slope="0.00"/>
        <vehicle id="204" x="-3.54" y="-0.30" angle="90.00" type="passenger" speed="0.44" pos="6.46" lane="E3_0" slope="0.00"/>
        <vehicle id="205" x="-5.36" y="-0.30" angle="90.00" type="passenger" speed="0.46" pos="4.64" lane="E3_0" slope="0.00"/>
        <vehicle id="206" x="-6.69" y="-0.30" angle="90.00" type="passenger" speed="0.36" pos="3.31" lane="E3_0" slope="0.00"/>
    </timestep>
    <timestep time="3.10">
        <vehicle id="201" x="4.23" y="0.30" angle="270.00" type="passenger" speed="0.48" pos="5.77" lane="E5_0" slope="0.00"/>
        <vehicle id="202" x="-0.30" y="4.98" angle="180.00" type="passenger" speed="0.42" pos="5.02" lane="E4_0" slope="0.00"/>
        <vehicle id="203" x="-1.81" y="-0.30" angle="90.00" type="passenger" speed="0.45" pos="8.19" lane="E3_0" slope="0.00"/>
        <vehicle id="204" x="-3.50" y="-0.30" angle="90.00" type="passenger" speed="0.46" pos="6.50" lane="E3_0" slope="0.00"/>
        <vehicle id="205" x="-5.31" y="-0.30" angle="90.00" type="passenger" speed="0.46" pos="4.69" lane="E3_0" slope="0.00"/>
        <vehicle id="206" x="-6.66" y="-0.30" angle="90.00" type="passenger" speed="0.36" pos="3.34" lane="E3_0" slope="0.00"/>
    </timestep>
    <timestep time="3.20">
        <vehicle id="201" x="4.18" y="0.30" angle="270.00" type="passenger" speed="0.47" pos="5.82" lane="E5_0" slope="0.00"/>
        <vehicle id="202" x="-0.30" y="4.94" angle="180.00" type="passenger" speed="0.42" pos="5.06" lane="E4_0" slope="0.00"/>
        <vehicle id="203" x="-1.77" y="-0.30" angle="90.00" type="passenger" speed="0.45" pos="8.23" lane="E3_0" slope="0.00"/>
        <vehicle id="204" x="-3.45" y="-0.30" angle="90.00" type="passenger" speed="0.47" pos="6.55" lane="E3_0" slope="0.00"/>
        <vehicle id="205" x="-5.27" y="-0.30" angle="90.00" type="passenger" speed="0.46" pos="4.73" lane="E3_0" slope="0.00"/>
        <vehicle id="206" x="-6.62" y="-0.30" angle="90.00" type="passenger" speed="0.36" pos="3.38" lane="E3_0" slope="0.00"/>
    </timestep>
    <timestep time="3.30">
        <vehicle id="201" x="4.14" y="0.30" angle="270.00" type="passenger" speed="0.48" pos="5.86" lane="E5_0" slope="0.00"/>
        <vehicle id="202" x="-0.30" y="4.90" angle="180.00" type="passenger" speed="0.41" pos="5.10" lane="E4_0" slope="0.00"/>
        <vehicle id="203" x="-1.72" y="-0.30" angle="90.00" type="passenger" speed="0.45" pos="8.28" lane="E3_0" slope="0.00"/>
        <vehicle id="204" x="-3.40" y="-0.30" angle="90.00" type="passenger" speed="0.48" pos="6.60" lane="E3_0" slope="0.00"/>
        <vehicle id="205" x="-5.22" y="-0.30" angle="90.00" type="passenger" speed="0.46" pos="4.78" lane="E3_0" slope="0.00"/>
        <vehicle id="206" x="-6.58" y="-0.30" angle="90.00" type="passenger" speed="0.36" pos="3.42" lane="E3_0" slope="0.00"/>
    </timestep>
    <timestep time="3.40">
        <vehicle id="201" x="4.09" y="0.30" angle="270.00" type="passenger" speed="0.47" pos="5.91" lane="E5_0" slope="0.00"/>
        <vehicle id="202" x="-0.30" y="4.85" angle="180.00" type="passenger" speed="0.42" pos="5.15" lane="E4_0" slope="0.00"/>
        <vehicle id="203" x="-1.68" y="-0.30" angle="90.00" type="passenger" speed="0.45" pos="8.32" lane="E3_0" slope="0.00"/>
        <vehicle id="204" x="-3.36" y="-0.30" angle="90.00" type="passenger" speed="0.47" pos="6.64" lane="E3_0" slope="0.00"/>
        <vehicle id="205" x="-5.17" y="-0.30" angle="90.00" type="passenger" speed="0.46" pos="4.83" lane="E3_0" slope="0.00"/>
        <vehicle id="206" x="-6.55" y="-0.30" angle="90.00" type="passenger" speed="0.36" pos="3.45" lane="E3_0" slope="0.00"/>
    </timestep>
    <timestep time="3.50">
        <vehicle id="201" x="4.04" y="0.30" angle="270.00" type="passenger" speed="0.47" pos="5.96" lane="E5_0" slope="0.00"/>
        <vehicle id="202" x="-0.30" y="4.81" angle="180.00" type="passenger" speed="0.42" pos="5.19" lane="E4_0" slope="0.00"/>
        <vehicle id="203" x="-1.63" y="-0.30" angle="90.00" type="passenger" speed="0.45" pos="8.37" lane="E3_0" slope="0.00"/>
        <vehicle id="204" x="-3.31" y="-0.30" angle="90.00" type="passenger" speed="0.47" pos="6.69" lane="E3_0" slope="0.00"/>
        <vehicle id="205" x="-5.13" y="-0.30" angle="90.00" type="passenger" speed="0.46" pos="4.87" lane="E3_0" slope="0.00"/>
        <vehicle id="206" x="-6.51" y="-0.30" angle="90.00" type="passenger" speed="0.36" pos="3.49" lane="E3_0" slope="0.00"/>
    </timestep>
    <timestep time="3.60">
        <vehicle id="201" x="3.99" y="0.30" angle="270.00" type="passenger" speed="0.47" pos="6.01" lane="E5_0" slope="0.00"/>
        <vehicle id="202" x="-0.30" y="4.77" angle="180.00" type="passenger" speed="0.41" pos="5.23" lane="E4_0" slope="0.00"/>
        <vehicle id="203" x="-1.59" y="-0.30" angle="90.00" type="passenger" speed="0.45" pos="8.41" lane="E3_0" slope="0.00"/>