<?xml version="1.0" encoding="UTF-8"?>

<!-- generated on 2024-08-26 12:25:46 by Eclipse SUMO sumo Version 1.20.0
<configuration xmlns:xsi="http://www.w3.org/2001/XMLSchema-instance" xsi:noNamespaceSchemaLocation="http://sumo.dlr.de/xsd/sumoConfiguration.xsd">

    <input>
        <net-file value="real_world.net.xml"/>
        <route-files value="real_world2.vehicles.rou.xml"/>
        <additional-files value="real_world.add.xml"/>
    </input>

    <output>
        <fcd-output value="fcd2.xml"/>
        <lanechange-output value="output_lanechange.txt"/>
    </output>

    <time>
        <begin value="0"/>
        <step-length value="0.1"/>
    </time>

    <processing>
        <time-to-teleport value="-1"/>
        <lanechange.duration value="15"/>
    </processing>

    <report>
        <verbose value="true"/>
        <no-step-log value="true"/>
    </report>

</configuration>
-->

<fcd-export xmlns:xsi="http://www.w3.org/2001/XMLSchema-instance" xsi:noNamespaceSchemaLocation="http://sumo.dlr.de/xsd/fcd_file.xsd">
    <timestep time="0.00"/>
    <timestep time="0.10">
        <vehicle id="201" x="3.50" y="0.25" angle="270.00" type="passenger" speed="0.00" pos="6.50" lane="E5_0" slope="0.00"/>
        <vehicle id="202" x="-2.47" y="-0.25" angle="90.00" type="passenger" speed="0.00" pos="7.53" lane="E3_0" slope="0.00"/>
    </timestep>
    <timestep time="0.20">
        <vehicle id="201" x="3.50" y="0.25" angle="270.00" type="passenger" speed="0.02" pos="6.50" lane="E5_0" slope="0.00"/>
        <vehicle id="202" x="-2.46" y="-0.25" angle="90.00" type="passenger" speed="0.02" pos="7.54" lane="E3_0" slope="0.00"/>
    </timestep>
    <timestep time="0.30">
        <vehicle id="201" x="3.50" y="0.25" angle="270.00" type="passenger" speed="0.04" pos="6.50" lane="E5_0" slope="0.00"/>
        <vehicle id="202" x="-2.46" y="-0.25" angle="90.00" type="passenger" speed="0.04" pos="7.54" lane="E3_0" slope="0.00"/>
    </timestep>
    <timestep time="0.40">
        <vehicle id="201" x="3.49" y="0.25" angle="270.00" type="passenger" speed="0.06" pos="6.51" lane="E5_0" slope="0.00"/>
        <vehicle id="202" x="-2.46" y="-0.25" angle="90.00" type="passenger" speed="0.06" pos="7.54" lane="E3_0" slope="0.00"/>
    </timestep>
    <timestep time="0.50">
        <vehicle id="201" x="3.48" y="0.25" angle="270.00" type="passenger" speed="0.08" pos="6.52" lane="E5_0" slope="0.00"/>
        <vehicle id="202" x="-2.45" y="-0.25" angle="90.00" type="passenger" speed="0.08" pos="7.55" lane="E3_0" slope="0.00"/>
    </timestep>
    <timestep time="0.60">
        <vehicle id="201" x="3.47" y="0.25" angle="270.00" type="passenger" speed="0.10" pos="6.53" lane="E5_0" slope="0.00"/>
        <vehicle id="202" x="-2.44" y="-0.25" angle="90.00" type="passenger" speed="0.09" pos="7.56" lane="E3_0" slope="0.00"/>
    </timestep>
    <timestep time="0.70">
        <vehicle id="201" x="3.46" y="0.25" angle="270.00" type="passenger" speed="0.11" pos="6.54" lane="E5_0" slope="0.00"/>
        <vehicle id="202" x="-2.43" y="-0.25" angle="90.00" type="passenger" speed="0.11" pos="7.57" lane="E3_0" slope="0.00"/>
    </timestep>
    <timestep time="0.80">
        <vehicle id="201" x="3.45" y="0.25" angle="270.00" type="passenger" speed="0.13" pos="6.55" lane="E5_0" slope="0.00"/>
        <vehicle id="202" x="-2.41" y="-0.25" angle="90.00" type="passenger" speed="0.12" pos="7.59" lane="E3_0" slope="0.00"/>
    </timestep>
    <timestep time="0.90">
        <vehicle id="201" x="3.43" y="0.25" angle="270.00" type="passenger" speed="0.15" pos="6.57" lane="E5_0" slope="0.00"/>
        <vehicle id="202" x="-2.40" y="-0.25" angle="90.00" type="passenger" speed="0.14" pos="7.60" lane="E3_0" slope="0.00"/>
    </timestep>
    <timestep time="1.00">
        <vehicle id="201" x="3.42" y="0.25" angle="270.00" type="passenger" speed="0.17" pos="6.58" lane="E5_0" slope="0.00"/>
        <vehicle id="202" x="-2.39" y="-0.25" angle="90.00" type="passenger" speed="0.16" pos="7.61" lane="E3_0" slope="0.00"/>
    </timestep>
    <timestep time="1.10">
        <vehicle id="201" x="3.40" y="0.25" angle="270.00" type="passenger" speed="0.18" pos="6.60" lane="E5_0" slope="0.00"/>
        <vehicle id="202" x="-2.37" y="-0.25" angle="90.00" type="passenger" speed="0.17" pos="7.63" lane="E3_0" slope="0.00"/>
    </timestep>
    <timestep time="1.20">
        <vehicle id="201" x="3.38" y="0.25" angle="270.00" type="passenger" speed="0.20" pos="6.62" lane="E5_0" slope="0.00"/>
        <vehicle id="202" x="-2.35" y="-0.25" angle="90.00" type="passenger" speed="0.19" pos="7.65" lane="E3_0" slope="0.00"/>
    </timestep>
    <timestep time="1.30">
        <vehicle id="201" x="3.35" y="0.25" angle="270.00" type="passenger" speed="0.22" pos="6.65" lane="E5_0" slope="0.00"/>
        <vehicle id="202" x="-2.33" y="-0.25" angle="90.00" type="passenger" speed="0.21" pos="7.67" lane="E3_0" slope="0.00"/>
    </timestep>
    <timestep time="1.40">
        <vehicle id="201" x="3.33" y="0.25" angle="270.00" type="passenger" speed="0.23" pos="6.67" lane="E5_0" slope="0.00"/>
        <vehicle id="202" x="-2.31" y="-0.25" angle="90.00" type="passenger" speed="0.22" pos="7.69" lane="E3_0" slope="0.00"/>
    </timestep>
    <timestep time="1.50">
        <vehicle id="201" x="3.31" y="0.25" angle="270.00" type="passenger" speed="0.25" pos="6.69" lane="E5_0" slope="0.00"/>
        <vehicle id="202" x="-2.28" y="-0.25" angle="90.00" type="passenger" speed="0.23" pos="7.72" lane="E3_0" slope="0.00"/>
    </timestep>
    <timestep time="1.60">
        <vehicle id="201" x="3.28" y="0.25" angle="270.00" type="passenger" speed="0.27" pos="6.72" lane="E5_0" slope="0.00"/>
        <vehicle id="202" x="-2.26" y="-0.25" angle="90.00" type="passenger" speed="0.25" pos="7.74" lane="E3_0" slope="0.00"/>
    </timestep>
    <timestep time="1.70">
        <vehicle id="201" x="3.25" y="0.25" angle="270.00" type="passenger" speed="0.29" pos="6.75" lane="E5_0" slope="0.00"/>
        <vehicle id="202" x="-2.23" y="-0.25" angle="90.00" type="passenger" speed="0.26" pos="7.77" lane="E3_0" slope="0.00"/>
    </timestep>
    <timestep time="1.80">
        <vehicle id="201" x="3.22" y="0.25" angle="270.00" type="passenger" speed="0.30" pos="6.78" lane="E5_0" slope="0.00"/>
        <vehicle id="202" x="-2.20" y="-0.25" angle="90.00" type="passenger" speed="0.28" pos="7.80" lane="E3_0" slope="0.00"/>
    </timestep>
    <timestep time="1.90">
        <vehicle id="201" x="3.19" y="0.25" angle="270.00" type="passenger" speed="0.31" pos="6.81" lane="E5_0" slope="0.00"/>
        <vehicle id="202" x="-2.17" y="-0.25" angle="90.00" type="passenger" speed="0.30" pos="7.83" lane="E3_0" slope="0.00"/>
    </timestep>
    <timestep time="2.00">
        <vehicle id="201" x="3.16" y="0.25" angle="270.00" type="passenger" speed="0.33" pos="6.84" lane="E5_0" slope="0.00"/>
        <vehicle id="202" x="-2.14" y="-0.25" angle="90.00" type="passenger" speed="0.31" pos="7.86" lane="E3_0" slope="0.00"/>
    </timestep>
    <timestep time="2.10">
        <vehicle id="201" x="3.12" y="0.25" angle="270.00" type="passenger" speed="0.35" pos="6.88" lane="E5_0" slope="0.00"/>
        <vehicle id="202" x="-2.11" y="-0.25" angle="90.00" type="passenger" speed="0.32" pos="7.89" lane="E3_0" slope="0.00"/>
    </timestep>
    <timestep time="2.20">
        <vehicle id="201" x="3.08" y="0.25" angle="270.00" type="passenger" speed="0.37" pos="6.92" lane="E5_0" slope="0.00"/>
        <vehicle id="202" x="-2.08" y="-0.25" angle="90.00" type="passenger" speed="0.33" pos="7.92" lane="E3_0" slope="0.00"/>
    </timestep>
    <timestep time="2.30">
        <vehicle id="201" x="3.05" y="0.25" angle="270.00" type="passenger" speed="0.38" pos="6.95" lane="E5_0" slope="0.00"/>
        <vehicle id="202" x="-2.04" y="-0.25" angle="90.00" type="passenger" speed="0.35" pos="7.96" lane="E3_0" slope="0.00"/>
    </timestep>
    <timestep time="2.40">
        <vehicle id="201" x="3.01" y="0.25" angle="270.00" type="passenger" speed="0.39" pos="6.99" lane="E5_0" slope="0.00"/>
        <vehicle id="202" x="-2.01" y="-0.25" angle="90.00" type="passenger" speed="0.37" pos="7.99" lane="E3_0" slope="0.00"/>
    </timestep>
    <timestep time="2.50">
        <vehicle id="201" x="2.97" y="0.25" angle="270.00" type="passenger" speed="0.41" pos="7.03" lane="E5_0" slope="0.00"/>
        <vehicle id="202" x="-1.97" y="-0.25" angle="90.00" type="passenger" speed="0.38" pos="8.03" lane="E3_0" slope="0.00"/>
    </timestep>
    <timestep time="2.60">
        <vehicle id="201" x="2.92" y="0.25" angle="270.00" type="passenger" speed="0.42" pos="7.08" lane="E5_0" slope="0.00"/>
        <vehicle id="202" x="-1.93" y="-0.25" angle="90.00" type="passenger" speed="0.40" pos="8.07" lane="E3_0" slope="0.00"/>
    </timestep>
    <timestep time="2.70">
        <vehicle id="201" x="2.88" y="0.25" angle="270.00" type="passenger" speed="0.44" pos="7.12" lane="E5_0" slope="0.00"/>
        <vehicle id="202" x="-1.89" y="-0.25" angle="90.00" type="passenger" speed="0.41" pos="8.11" lane="E3_0" slope="0.00"/>
    </timestep>
    <timestep time="2.80">
        <vehicle id="201" x="2.83" y="0.25" angle="270.00" type="passenger" speed="0.46" pos="7.17" lane="E5_0" slope="0.00"/>
        <vehicle id="202" x="-1.85" y="-0.25" angle="90.00" type="passenger" speed="0.42" pos="8.15" lane="E3_0" slope="0.00"/>
    </timestep>
    <timestep time="2.90">
        <vehicle id="201" x="2.79" y="0.25" angle="270.00" type="passenger" speed="0.47" pos="7.21" lane="E5_0" slope="0.00"/>
        <vehicle id="202" x="-1.80" y="-0.25" angle="90.00" type="passenger" speed="0.41" pos="8.20" lane="E3_0" slope="0.00"/>
    </timestep>
    <timestep time="3.00">
        <vehicle id="201" x="2.74" y="0.25" angle="270.00" type="passenger" speed="0.48" pos="7.26" lane="E5_0" slope="0.00"/>
        <vehicle id="202" x="-1.76" y="-0.25" angle="90.00" type="passenger" speed="0.41" pos="8.24" lane="E3_0" slope="0.00"/>
    </timestep>
    <timestep time="3.10">
        <vehicle id="201" x="2.69" y="0.25" angle="270.00" type="passenger" speed="0.48" pos="7.31" lane="E5_0" slope="0.00"/>
        <vehicle id="202" x="-1.72" y="-0.25" angle="90.00" type="passenger" speed="0.42" pos="8.28" lane="E3_0" slope="0.00"/>
    </timestep>
    <timestep time="3.20">
        <vehicle id="201" x="2.64" y="0.25" angle="270.00" type="passenger" speed="0.47" pos="7.36" lane="E5_0" slope="0.00"/>
        <vehicle id="202" x="-1.68" y="-0.25" angle="90.00" type="passenger" speed="0.41" pos="8.32" lane="E3_0" slope="0.00"/>
    </timestep>
    <timestep time="3.30">
        <vehicle id="201" x="2.59" y="0.25" angle="270.00" type="passenger" speed="0.48" pos="7.41" lane="E5_0" slope="0.00"/>
        <vehicle id="202" x="-1.64" y="-0.25" angle="90.00" type="passenger" speed="0.41" pos="8.36" lane="E3_0" slope="0.00"/>
    </timestep>
    <timestep time="3.40">
        <vehicle id="201" x="2.55" y="0.25" angle="270.00" type="passenger" speed="0.47" pos="7.45" lane="E5_0" slope="0.00"/>
        <vehicle id="202" x="-1.60" y="-0.25" angle="90.00" type="passenger" speed="0.42" pos="8.40" lane="E3_0" slope="0.00"/>
    </timestep>
    <timestep time="3.50">
        <vehicle id="201" x="2.50" y="0.25" angle="270.00" type="passenger" speed="0.47" pos="7.50" lane="E5_0" slope="0.00"/>
        <vehicle id="202" x="-1.56" y="-0.25" angle="90.00" type="passenger" speed="0.41" pos="8.44" lane="E3_0" slope="0.00"/>
    </timestep>
    <timestep time="3.60">
        <vehicle id="201" x="2.45" y="0.25" angle="270.00" type="passenger" speed="0.47" pos="7.55" lane="E5_0" slope="0.00"/>
        <vehicle id="202" x="-1.52" y="-0.25" angle="90.00" type="passenger" speed="0.41" pos="8.48" lane="E3_0" slope="0.00"/>
    </timestep>
    <timestep time="3.70">
        <vehicle id="201" x="2.41" y="0.25" angle="270.00" type="passenger" speed="0.48" pos="7.59" lane="E5_0" slope="0.00"/>
        <vehicle id="202" x="-1.47" y="-0.25" angle="90.00" type="passenger" speed="0.41" pos="8.53" lane="E3_0" slope="0.00"/>
    </timestep>
    <timestep time="3.80">
        <vehicle id="201" x="2.36" y="0.25" angle="270.00" type="passenger" speed="0.48" pos="7.64" lane="E5_0" slope="0.00"/>
        <vehicle id="202" x="-1.43" y="-0.25" angle="90.00" type="passenger" speed="0.41" pos="8.57" lane="E3_0" slope="0.00"/>
    </timestep>
    <timestep time="3.90">
        <vehicle id="201" x="2.31" y="0.25" angle="270.00" type="passenger" speed="0.47" pos="7.69" lane="E5_0" slope="0.00"/>
        <vehicle id="202" x="-1.39" y="-0.25" angle="90.00" type="passenger" speed="0.41" pos="8.61" lane="E3_0" slope="0.00"/>
    </timestep>
    <timestep time="4.00">
        <vehicle id="201" x="2.26" y="0.25" angle="270.00" type="passenger" speed="0.48" pos="7.74" lane="E5_0" slope="0.00"/>
        <vehicle id="202" x="-1.35" y="-0.25" angle="90.00" type="passenger" speed="0.42" pos="8.65" lane="E3_0" slope="0.00"/>
    </timestep>
    <timestep time="4.10">
        <vehicle id="201" x="2.22" y="0.25" angle="270.00" type="passenger" speed="0.47" pos="7.78" lane="E5_0" slope="0.00"/>
        <vehicle id="202" x="-1.31" y="-0.25" angle="90.00" type="passenger" speed="0.41" pos="8.69" lane="E3_0" slope="0.00"/>
    </timestep>
    <timestep time="4.20">
        <vehicle id="201" x="2.17" y="0.25" angle="270.00" type="passenger" speed="0.47" pos="7.83" lane="E5_0" slope="0.00"/>
        <vehicle id="202" x="-1.27" y="-0.25" angle="90.00" type="passenger" speed="0.41" pos="8.73" lane="E3_0" slope="0.00"/>
    </timestep>
    <timestep time="4.30">
        <vehicle id="201" x="2.12" y="0.25" angle="270.00" type="passenger" speed="0.48" pos="7.88" lane="E5_0" slope="0.00"/>
        <vehicle id="202" x="-1.23" y="-0.25" angle="90.00" type="passenger" speed="0.41" pos="8.77" lane="E3_0" slope="0.00"/>
    </timestep>
    <timestep time="4.40">
        <vehicle id="201" x="2.07" y="0.25" angle="270.00" type="passenger" speed="0.47" pos="7.93" lane="E5_0" slope="0.00"/>
        <vehicle id="202" x="-1.18" y="-0.25" angle="90.00" type="passenger" speed="0.42" pos="8.82" lane="E3_0" slope="0.00"/>
    </timestep>
    <timestep time="4.50">
        <vehicle id="201" x="2.03" y="0.25" angle="270.00" type="passenger" speed="0.47" pos="7.97" lane="E5_0" slope="0.00"/>
        <vehicle id="202" x="-1.14" y="-0.25" angle="90.00" type="passenger" speed="0.42" pos="8.86" lane="E3_0" slope="0.00"/>
    </timestep>
    <timestep time="4.60">
        <vehicle id="201" x="1.98" y="0.25" angle="270.00" type="passenger" speed="0.48" pos="8.02" lane="E5_0" slope="0.00"/>
        <vehicle id="202" x="-1.10" y="-0.25" angle="90.00" type="passenger" speed="0.41" pos="8.90" lane="E3_0" slope="0.00"/>
    </timestep>
    <timestep time="4.70">
        <vehicle id="201" x="1.93" y="0.25" angle="270.00" type="passenger" speed="0.48" pos="8.07" lane="E5_0" slope="0.00"/>
        <vehicle id="202" x="-1.06" y="-0.25" angle="90.00" type="passenger" speed="0.42" pos="8.94" lane="E3_0" slope="0.00"/>
    </timestep>
    <timestep time="4.80">
        <vehicle id="201" x="1.88" y="0.25" angle="270.00" type="passenger" speed="0.47" pos="8.12" lane="E5_0" slope="0.00"/>
        <vehicle id="202" x="-1.02" y="-0.25" angle="90.00" type="passenger" speed="0.41" pos="8.98" lane="E3_0" slope="0.00"/>
    </timestep>
    <timestep time="4.90">
        <vehicle id="201" x="1.84" y="0.25" angle="270.00" type="passenger" speed="0.47" pos="8.16" lane="E5_0" slope="0.00"/>
        <vehicle id="202" x="-0.98" y="-0.25" angle="90.00" type="passenger" speed="0.41" pos="9.02" lane="E3_0" slope="0.00"/>
    </timestep>
    <timestep time="5.00">
        <vehicle id="201" x="1.79" y="0.25" angle="270.00" type="passenger" speed="0.48" pos="8.21" lane="E5_0" slope="0.00"/>
        <vehicle id="202" x="-0.94" y="-0.25" angle="90.00" type="passenger" speed="0.41" pos="9.06" lane="E3_0" slope="0.00"/>
    </timestep>
    <timestep time="5.10">
        <vehicle id="201" x="1.74" y="0.25" angle="270.00" type="passenger" speed="0.48" pos="8.26" lane="E5_0" slope="0.00"/>
        <vehicle id="202" x="-0.90" y="-0.25" angle="90.00" type="passenger" speed="0.42" pos="9.10" lane="E3_0" slope="0.00"/>
    </timestep>
    <timestep time="5.20">
        <vehicle id="201" x="1.69" y="0.25" angle="270.00" type="passenger" speed="0.48" pos="8.31" lane="E5_0" slope="0.00"/>
        <vehicle id="202" x="-0.85" y="-0.25" angle="90.00" type="passenger" speed="0.42" pos="9.15" lane="E3_0" slope="0.00"/>
    </timestep>
    <timestep time="5.30">
        <vehicle id="201" x="1.65" y="0.25" angle="270.00" type="passenger" speed="0.47" pos="8.35" lane="E5_0" slope="0.00"/>
        <vehicle id="202" x="-0.81" y="-0.25" angle="90.00" type="passenger" speed="0.42" pos="9.19" lane="E3_0" slope="0.00"/>
    </timestep>
    <timestep time="5.40">
        <vehicle id="201" x="1.60" y="0.25" angle="270.00" type="passenger" speed="0.47" pos="8.40" lane="E5_0" slope="0.00"/>
        <vehicle id="202" x="-0.77" y="-0.25" angle="90.00" type="passenger" speed="0.42" pos="9.23" lane="E3_0" slope="0.00"/>
    </timestep>
    <timestep time="5.50">
        <vehicle id="201" x="1.55" y="0.25" angle="270.00" type="passenger" speed="0.48" pos="8.45" lane="E5_0" slope="0.00"/>
        <vehicle id="202" x="-0.73" y="-0.25" angle="90.00" type="passenger" speed="0.41" pos="0.02" lane=":J7_10_0" slope="0.00"/>
    </timestep>
    <timestep time="5.60">
        <vehicle id="201" x="1.50" y="0.25" angle="270.00" type="passenger" speed="0.47" pos="8.50" lane="E5_0" slope="0.00"/>
        <vehicle id="202" x="-0.69" y="-0.25" angle="90.00" type="passenger" speed="0.41" pos="0.06" lane=":J7_10_0" slope="0.00"/>
    </timestep>
    <timestep time="5.70">
        <vehicle id="201" x="1.46" y="0.25" angle="270.00" type="passenger" speed="0.48" pos="8.54" lane="E5_0" slope="0.00"/>
        <vehicle id="202" x="-0.65" y="-0.25" angle="90.00" type="passenger" speed="0.41" pos="0.10" lane=":J7_10_0" slope="0.00"/>
    </timestep>
    <timestep time="5.80">
        <vehicle id="201" x="1.41" y="0.25" angle="270.00" type="passenger" speed="0.48" pos="8.59" lane="E5_0" slope="0.00"/>
        <vehicle id="202" x="-0.61" y="-0.25" angle="90.00" type="passenger" speed="0.41" pos="0.14" lane=":J7_10_0" slope="0.00"/>
    </timestep>
    <timestep time="5.90">
        <vehicle id="201" x="1.36" y="0.25" angle="270.00" type="passenger" speed="0.47" pos="8.64" lane="E5_0" slope="0.00"/>
        <vehicle id="202" x="-0.56" y="-0.25" angle="90.00" type="passenger" speed="0.42" pos="0.19" lane=":J7_10_0" slope="0.00"/>
    </timestep>
    <timestep time="6.00">
        <vehicle id="201" x="1.31" y="0.25" angle="270.00" type="passenger" speed="0.47" pos="8.69" lane="E5_0" slope="0.00"/>
        <vehicle id="202" x="-0.52" y="-0.25" angle="90.00" type="passenger" speed="0.42" pos="0.23" lane=":J7_10_0" slope="0.00"/>
    </timestep>
    <timestep time="6.10">
        <vehicle id="201" x="1.27" y="0.25" angle="270.00" type="passenger" speed="0.48" pos="8.73" lane="E5_0" slope="0.00"/>
        <vehicle id="202" x="-0.48" y="-0.25" angle="90.00" type="passenger" speed="0.41" pos="0.27" lane=":J7_10_0" slope="0.00"/>
    </timestep>
    <timestep time="6.20">
        <vehicle id="201" x="1.22" y="0.25" angle="270.00" type="passenger" speed="0.48" pos="8.78" lane="E5_0" slope="0.00"/>
        <vehicle id="202" x="-0.44" y="-0.25" angle="90.00" type="passenger" speed="0.41" pos="0.31" lane=":J7_10_0" slope="0.00"/>
    </timestep>
    <timestep time="6.30">
        <vehicle id="201" x="1.17" y="0.25" angle="270.00" type="passenger" speed="0.48" pos="8.83" lane="E5_0" slope="0.00"/>
        <vehicle id="202" x="-0.40" y="-0.25" angle="90.00" type="passenger" speed="0.42" pos="0.35" lane=":J7_10_0" slope="0.00"/>
    </timestep>
    <timestep time="6.40">
        <vehicle id="201" x="1.12" y="0.25" angle="270.00" type="passenger" speed="0.47" pos="8.88" lane="E5_0" slope="0.00"/>
        <vehicle id="202" x="-0.36" y="-0.25" angle="90.00" type="passenger" speed="0.42" pos="0.39" lane=":J7_10_0" slope="0.00"/>
    </timestep>
    <timestep time="6.50">
        <vehicle id="201" x="1.07" y="0.25" angle="270.00" type="passenger" speed="0.48" pos="8.93" lane="E5_0" slope="0.00"/>
        <vehicle id="202" x="-0.31" y="-0.25" angle="90.00" type="passenger" speed="0.42" pos="0.44" lane=":J7_10_0" slope="0.00"/>
    </timestep>
    <timestep time="6.60">
        <vehicle id="201" x="1.03" y="0.25" angle="270.00" type="passenger" speed="0.48" pos="8.97" lane="E5_0" slope="0.00"/>
        <vehicle id="202" x="-0.27" y="-0.25" angle="90.00" type="passenger" speed="0.42" pos="0.48" lane=":J7_10_0" slope="0.00"/>
    </timestep>
    <timestep time="6.70">
        <vehicle id="201" x="0.98" y="0.25" angle="270.00" type="passenger" speed="0.47" pos="9.02" lane="E5_0" slope="0.00"/>
        <vehicle id="202" x="-0.23" y="-0.25" angle="90.00" type="passenger" speed="0.41" pos="0.52" lane=":J7_10_0" slope="0.00"/>
    </timestep>
    <timestep time="6.80">
        <vehicle id="201" x="0.93" y="0.25" angle="270.00" type="passenger" speed="0.47" pos="9.07" lane="E5_0" slope="0.00"/>
        <vehicle id="202" x="-0.19" y="-0.25" angle="90.00" type="passenger" speed="0.41" pos="0.56" lane=":J7_10_0" slope="0.00"/>
    </timestep>
    <timestep time="6.90">
        <vehicle id="201" x="0.88" y="0.25" angle="270.00" type="passenger" speed="0.48" pos="9.12" lane="E5_0" slope="0.00"/>
        <vehicle id="202" x="-0.15" y="-0.25" angle="90.00" type="passenger" speed="0.42" pos="0.60" lane=":J7_10_0" slope="0.00"/>
    </timestep>
    <timestep time="7.00">
        <vehicle id="201" x="0.84" y="0.25" angle="270.00" type="passenger" speed="0.47" pos="9.16" lane="E5_0" slope="0.00"/>
        <vehicle id="202" x="-0.11" y="-0.25" angle="90.00" type="passenger" speed="0.41" pos="0.64" lane=":J7_10_0" slope="0.00"/>
    </timestep>
    <timestep time="7.10">
        <vehicle id="201" x="0.79" y="0.25" angle="270.00" type="passenger" speed="0.48" pos="9.21" lane="E5_0" slope="0.00"/>
        <vehicle id="202" x="-0.07" y="-0.25" angle="90.00" type="passenger" speed="0.41" pos="0.68" lane=":J7_10_0" slope="0.00"/>
    </timestep>
    <timestep time="7.20">
        <vehicle id="201" x="0.74" y="0.25" angle="270.00" type="passenger" speed="0.48" pos="0.01" lane=":J7_4_0" slope="0.00"/>
        <vehicle id="202" x="-0.02" y="-0.25" angle="90.00" type="passenger" speed="0.41" pos="0.73" lane=":J7_10_0" slope="0.00"/>
    </timestep>
    <timestep time="7.30">
        <vehicle id="201" x="0.70" y="0.25" angle="270.00" type="passenger" speed="0.48" pos="0.05" lane=":J7_4_0" slope="0.00"/>
        <vehicle id="202" x="0.02" y="-0.25" angle="90.00" type="passenger" speed="0.41" pos="0.77" lane=":J7_10_0" slope="0.00"/>
    </timestep>
    <timestep time="7.40">
        <vehicle id="201" x="0.65" y="0.25" angle="270.00" type="passenger" speed="0.48" pos="0.10" lane=":J7_4_0" slope="0.00"/>
        <vehicle id="202" x="0.06" y="-0.25" angle="90.00" type="passenger" speed="0.42" pos="0.81" lane=":J7_10_0" slope="0.00"/>
    </timestep>
    <timestep time="7.50">
        <vehicle id="201" x="0.60" y="0.25" angle="270.00" type="passenger" speed="0.48" pos="0.15" lane=":J7_4_0" slope="0.00"/>
        <vehicle id="202" x="0.10" y="-0.25" angle="90.00" type="passenger" speed="0.42" pos="0.85" lane=":J7_10_0" slope="0.00"/>
    </timestep>
    <timestep time="7.60">
        <vehicle id="201" x="0.55" y="0.25" angle="270.00" type="passenger" speed="0.47" pos="0.20" lane=":J7_4_0" slope="0.00"/>
        <vehicle id="202" x="0.14" y="-0.25" angle="90.00" type="passenger" speed="0.41" pos="0.89" lane=":J7_10_0" slope="0.00"/>
    </timestep>
    <timestep time="7.70">
        <vehicle id="201" x="0.51" y="0.25" angle="270.00" type="passenger" speed="0.47" pos="0.24" lane=":J7_4_0" slope="0.00"/>
        <vehicle id="202" x="0.18" y="-0.25" angle="90.00" type="passenger" speed="0.41" pos="0.93" lane=":J7_10_0" slope="0.00"/>
    </timestep>
    <timestep time="7.80">
        <vehicle id="201" x="0.46" y="0.25" angle="270.00" type="passenger" speed="0.47" pos="0.29" lane=":J7_4_0" slope="0.00"/>
        <vehicle id="202" x="0.22" y="-0.25" angle="90.00" type="passenger" speed="0.41" pos="0.97" lane=":J7_10_0" slope="0.00"/>
    </timestep>
    <timestep time="7.90">
        <vehicle id="201" x="0.41" y="0.25" angle="270.00" type="passenger" speed="0.47" pos="0.34" lane=":J7_4_0" slope="0.00"/>
        <vehicle id="202" x="0.26" y="-0.25" angle="90.00" type="passenger" speed="0.42" pos="1.01" lane=":J7_10_0" slope="0.00"/>
    </timestep>
    <timestep time="8.00">
        <vehicle id="201" x="0.36" y="0.25" angle="270.00" type="passenger" speed="0.47" pos="0.39" lane=":J7_4_0" slope="0.00"/>
        <vehicle id="202" x="0.31" y="-0.25" angle="90.00" type="passenger" speed="0.41" pos="1.06" lane=":J7_10_0" slope="0.00"/>
    </timestep>
    <timestep time="8.10">
        <vehicle id="201" x="0.32" y="0.25" angle="270.00" type="passenger" speed="0.47" pos="0.43" lane=":J7_4_0" slope="0.00"/>
        <vehicle id="202" x="0.35" y="-0.25" angle="90.00" type="passenger" speed="0.41" pos="1.10" lane=":J7_10_0" slope="0.00"/>
    </timestep>
    <timestep time="8.20">
        <vehicle id="201" x="0.27" y="0.25" angle="270.00" type="passenger" speed="0.48" pos="0.48" lane=":J7_4_0" slope="0.00"/>
        <vehicle id="202" x="0.39" y="-0.25" angle="90.00" type="passenger" speed="0.42" pos="1.14" lane=":J7_10_0" slope="0.00"/>
    </timestep>
    <timestep time="8.30">
        <vehicle id="201" x="0.22" y="0.25" angle="270.00" type="passenger" speed="0.47" pos="0.53" lane=":J7_4_0" slope="0.00"/>
        <vehicle id="202" x="0.43" y="-0.25" angle="90.00" type="passenger" speed="0.41" pos="1.18" lane=":J7_10_0" slope="0.00"/>
    </timestep>
    <timestep time="8.40">
        <vehicle id="201" x="0.17" y="0.25" angle="270.00" type="passenger" speed="0.48" pos="0.58" lane=":J7_4_0" slope="0.00"/>
        <vehicle id="202" x="0.47" y="-0.25" angle="90.00" type="passenger" speed="0.41" pos="1.22" lane=":J7_10_0" slope="0.00"/>
    </timestep>
    <timestep time="8.50">
        <vehicle id="201" x="0.13" y="0.25" angle="270.00" type="passenger" speed="0.47" pos="0.62" lane=":J7_4_0" slope="0.00"/>
        <vehicle id="202" x="0.51" y="-0.25" angle="90.00" type="passenger" speed="0.42" pos="1.26" lane=":J7_10_0" slope="0.00"/>
    </timestep>
    <timestep time="8.60">
        <vehicle id="201" x="0.08" y="0.25" angle="270.00" type="passenger" speed="0.47" pos="0.67" lane=":J7_4_0" slope="0.00"/>
        <vehicle id="202" x="0.55" y="-0.25" angle="90.00" type="passenger" speed="0.42" pos="1.30" lane=":J7_10_0" slope="0.00"/>
    </timestep>
    <timestep time="8.70">
        <vehicle id="201" x="0.03" y="0.25" angle="270.00" type="passenger" speed="0.47" pos="0.72" lane=":J7_4_0" slope="0.00"/>
        <vehicle id="202" x="0.60" y="-0.25" angle="90.00" type="passenger" speed="0.42" pos="1.35" lane=":J7_10_0" slope="0.00"/>
    </timestep>
    <timestep time="8.80">
        <vehicle id="201" x="-0.02" y="0.25" angle="270.00" type="passenger" speed="0.47" pos="0.77" lane=":J7_4_0" slope="0.00"/>
        <vehicle id="202" x="0.64" y="-0.25" angle="90.00" type="passenger" speed="0.41" pos="1.39" lane=":J7_10_0" slope="0.00"/>
    </timestep>
    <timestep time="8.90">
        <vehicle id="201" x="-0.06" y="0.25" angle="270.00" type="passenger" speed="0.47" pos="0.81" lane=":J7_4_0" slope="0.00"/>
        <vehicle id="202" x="0.68" y="-0.25" angle="90.00" type="passenger" speed="0.41" pos="1.43" lane=":J7_10_0" slope="0.00"/>
    </timestep>
    <timestep time="9.00">
        <vehicle id="201" x="-0.11" y="0.25" angle="270.00" type="passenger" speed="0.48" pos="0.86" lane=":J7_4_0" slope="0.00"/>
        <vehicle id="202" x="0.72" y="-0.25" angle="90.00" type="passenger" speed="0.42" pos="1.47" lane=":J7_10_0" slope="0.00"/>
    </timestep>
    <timestep time="9.10">
        <vehicle id="201" x="-0.16" y="0.25" angle="270.00" type="passenger" speed="0.47" pos="0.91" lane=":J7_4_0" slope="0.00"/>
        <vehicle id="202" x="0.76" y="-0.25" angle="90.00" type="passenger" speed="0.42" pos="0.01" lane="-E5_0" slope="0.00"/>
    </timestep>
    <timestep time="9.20">
        <vehicle id="201" x="-0.21" y="0.25" angle="270.00" type="passenger" speed="0.48" pos="0.96" lane=":J7_4_0" slope="0.00"/>
        <vehicle id="202" x="0.80" y="-0.25" angle="90.00" type="passenger" speed="0.42" pos="0.05" lane="-E5_0" slope="0.00"/>
    </timestep>
    <timestep time="9.30">
        <vehicle id="201" x="-0.25" y="0.25" angle="270.00" type="passenger" speed="0.48" pos="1.00" lane=":J7_4_0" slope="0.00"/>
        <vehicle id="202" x="0.85" y="-0.25" angle="90.00" type="passenger" speed="0.41" pos="0.10" lane="-E5_0" slope="0.00"/>
    </timestep>
    <timestep time="9.40">
        <vehicle id="201" x="-0.30" y="0.25" angle="270.00" type="passenger" speed="0.48" pos="1.05" lane=":J7_4_0" slope="0.00"/>
        <vehicle id="202" x="0.89" y="-0.25" angle="90.00" type="passenger" speed="0.42" pos="0.14" lane="-E5_0" slope="0.00"/>
    </timestep>
    <timestep time="9.50">
        <vehicle id="201" x="-0.35" y="0.25" angle="270.00" type="passenger" speed="0.48" pos="1.10" lane=":J7_4_0" slope="0.00"/>
        <vehicle id="202" x="0.93" y="-0.25" angle="90.00" type="passenger" speed="0.42" pos="0.18" lane="-E5_0" slope="0.00"/>
    </timestep>
    <timestep time="9.60">
        <vehicle id="201" x="-0.40" y="0.25" angle="270.00" type="passenger" speed="0.48" pos="1.15" lane=":J7_4_0" slope="0.00"/>
        <vehicle id="202" x="0.97" y="-0.25" angle="90.00" type="passenger" speed="0.41" pos="0.22" lane="-E5_0" slope="0.00"/>
    </timestep>
    <timestep time="9.70">