<?xml version="1.0" encoding="UTF-8"?>

<!-- generated on 2024-06-25 12:10:45 by Eclipse SUMO sumo Version 1.20.0
<configuration xmlns:xsi="http://www.w3.org/2001/XMLSchema-instance" xsi:noNamespaceSchemaLocation="http://sumo.dlr.de/xsd/sumoConfiguration.xsd">

    <input>
        <net-file value="scenarios/conv_scenario_85/real_world.net.xml"/>
        <route-files value="scenarios/conv_scenario_85/real_world.vehicles.rou.xml"/>
        <additional-files value="scenarios/conv_scenario_85/real_world.add.xml"/>
    </input>

    <output>
        <fcd-output value="scenarios/conv_scenario_85/fcd.xml"/>
        <lanechange-output value="scenarios/conv_scenario_85/output_lanechange.txt"/>
    </output>

    <time>
        <begin value="0"/>
        <step-length value="0.1"/>
    </time>

    <processing>
        <time-to-teleport value="-1"/>
        <lanechange.duration value="15"/>
    </processing>

    <report>
        <verbose value="true"/>
        <no-step-log value="true"/>
    </report>

</configuration>
-->

<fcd-export xmlns:xsi="http://www.w3.org/2001/XMLSchema-instance" xsi:noNamespaceSchemaLocation="http://sumo.dlr.de/xsd/fcd_file.xsd">
    <timestep time="0.00"/>
    <timestep time="0.10">
        <vehicle id="201" x="4.46" y="0.25" angle="270.00" type="passenger" speed="0.00" pos="5.54" lane="E5_0" slope="0.00"/>
        <vehicle id="202" x="-0.25" y="5.16" angle="180.00" type="passenger" speed="0.00" pos="4.84" lane="E4_0" slope="0.00"/>
        <vehicle id="203" x="-2.00" y="-0.25" angle="90.00" type="passenger" speed="0.00" pos="8.00" lane="E3_0" slope="0.00"/>
        <vehicle id="204" x="-3.67" y="-0.25" angle="90.00" type="passenger" speed="0.00" pos="6.33" lane="E3_0" slope="0.00"/>
        <vehicle id="205" x="-5.50" y="-0.25" angle="90.00" type="passenger" speed="0.00" pos="4.50" lane="E3_0" slope="0.00"/>
        <vehicle id="206" x="-6.79" y="-0.25" angle="90.00" type="passenger" speed="0.00" pos="3.21" lane="E3_0" slope="0.00"/>
    </timestep>
    <timestep time="0.20">
        <vehicle id="201" x="4.46" y="0.25" angle="270.00" type="passenger" speed="0.02" pos="5.54" lane="E5_0" slope="0.00"/>
        <vehicle id="202" x="-0.25" y="5.16" angle="180.00" type="passenger" speed="0.02" pos="4.84" lane="E4_0" slope="0.00"/>
        <vehicle id="203" x="-2.00" y="-0.25" angle="90.00" type="passenger" speed="0.02" pos="8.00" lane="E3_0" slope="0.00"/>
        <vehicle id="204" x="-3.67" y="-0.25" angle="90.00" type="passenger" speed="0.02" pos="6.33" lane="E3_0" slope="0.00"/>
        <vehicle id="205" x="-5.49" y="-0.25" angle="90.00" type="passenger" speed="0.02" pos="4.51" lane="E3_0" slope="0.00"/>
        <vehicle id="206" x="-6.78" y="-0.25" angle="90.00" type="passenger" speed="0.02" pos="3.22" lane="E3_0" slope="0.00"/>
    </timestep>
    <timestep time="0.30">
        <vehicle id="201" x="4.46" y="0.25" angle="270.00" type="passenger" speed="0.04" pos="5.54" lane="E5_0" slope="0.00"/>
        <vehicle id="202" x="-0.25" y="5.15" angle="180.00" type="passenger" speed="0.04" pos="4.85" lane="E4_0" slope="0.00"/>
        <vehicle id="203" x="-1.99" y="-0.25" angle="90.00" type="passenger" speed="0.04" pos="8.01" lane="E3_0" slope="0.00"/>
        <vehicle id="204" x="-3.66" y="-0.25" angle="90.00" type="passenger" speed="0.04" pos="6.34" lane="E3_0" slope="0.00"/>
        <vehicle id="205" x="-5.49" y="-0.25" angle="90.00" type="passenger" speed="0.04" pos="4.51" lane="E3_0" slope="0.00"/>
        <vehicle id="206" x="-6.78" y="-0.25" angle="90.00" type="passenger" speed="0.04" pos="3.22" lane="E3_0" slope="0.00"/>
    </timestep>
    <timestep time="0.40">
        <vehicle id="201" x="4.45" y="0.25" angle="270.00" type="passenger" speed="0.06" pos="5.55" lane="E5_0" slope="0.00"/>
        <vehicle id="202" x="-0.25" y="5.15" angle="180.00" type="passenger" speed="0.05" pos="4.85" lane="E4_0" slope="0.00"/>
        <vehicle id="203" x="-1.99" y="-0.25" angle="90.00" type="passenger" speed="0.06" pos="8.01" lane="E3_0" slope="0.00"/>
        <vehicle id="204" x="-3.66" y="-0.25" angle="90.00" type="passenger" speed="0.06" pos="6.34" lane="E3_0" slope="0.00"/>
        <vehicle id="205" x="-5.48" y="-0.25" angle="90.00" type="passenger" speed="0.06" pos="4.52" lane="E3_0" slope="0.00"/>
        <vehicle id="206" x="-6.77" y="-0.25" angle="90.00" type="passenger" speed="0.06" pos="3.23" lane="E3_0" slope="0.00"/>
    </timestep>
    <timestep time="0.50">
        <vehicle id="201" x="4.44" y="0.25" angle="270.00" type="passenger" speed="0.08" pos="5.56" lane="E5_0" slope="0.00"/>
        <vehicle id="202" x="-0.25" y="5.14" angle="180.00" type="passenger" speed="0.07" pos="4.86" lane="E4_0" slope="0.00"/>
        <vehicle id="203" x="-1.98" y="-0.25" angle="90.00" type="passenger" speed="0.07" pos="8.02" lane="E3_0" slope="0.00"/>
        <vehicle id="204" x="-3.65" y="-0.25" angle="90.00" type="passenger" speed="0.08" pos="6.35" lane="E3_0" slope="0.00"/>
        <vehicle id="205" x="-5.48" y="-0.25" angle="90.00" type="passenger" speed="0.08" pos="4.52" lane="E3_0" slope="0.00"/>
        <vehicle id="206" x="-6.77" y="-0.25" angle="90.00" type="passenger" speed="0.07" pos="3.23" lane="E3_0" slope="0.00"/>
    </timestep>
    <timestep time="0.60">
        <vehicle id="201" x="4.43" y="0.25" angle="270.00" type="passenger" speed="0.10" pos="5.57" lane="E5_0" slope="0.00"/>
        <vehicle id="202" x="-0.25" y="5.13" angle="180.00" type="passenger" speed="0.09" pos="4.87" lane="E4_0" slope="0.00"/>
        <vehicle id="203" x="-1.97" y="-0.25" angle="90.00" type="passenger" speed="0.09" pos="8.03" lane="E3_0" slope="0.00"/>
        <vehicle id="204" x="-3.64" y="-0.25" angle="90.00" type="passenger" speed="0.09" pos="6.36" lane="E3_0" slope="0.00"/>
        <vehicle id="205" x="-5.47" y="-0.25" angle="90.00" type="passenger" speed="0.09" pos="4.53" lane="E3_0" slope="0.00"/>
        <vehicle id="206" x="-6.76" y="-0.25" angle="90.00" type="passenger" speed="0.09" pos="3.24" lane="E3_0" slope="0.00"/>
    </timestep>
    <timestep time="0.70">
        <vehicle id="201" x="4.42" y="0.25" angle="270.00" type="passenger" speed="0.11" pos="5.58" lane="E5_0" slope="0.00"/>
        <vehicle id="202" x="-0.25" y="5.12" angle="180.00" type="passenger" speed="0.11" pos="4.88" lane="E4_0" slope="0.00"/>
        <vehicle id="203" x="-1.96" y="-0.25" angle="90.00" type="passenger" speed="0.11" pos="8.04" lane="E3_0" slope="0.00"/>
        <vehicle id="204" x="-3.63" y="-0.25" angle="90.00" type="passenger" speed="0.11" pos="6.37" lane="E3_0" slope="0.00"/>
        <vehicle id="205" x="-5.46" y="-0.25" angle="90.00" type="passenger" speed="0.11" pos="4.54" lane="E3_0" slope="0.00"/>
        <vehicle id="206" x="-6.75" y="-0.25" angle="90.00" type="passenger" speed="0.11" pos="3.25" lane="E3_0" slope="0.00"/>
    </timestep>
    <timestep time="0.80">
        <vehicle id="201" x="4.41" y="0.25" angle="270.00" type="passenger" speed="0.13" pos="5.59" lane="E5_0" slope="0.00"/>
        <vehicle id="202" x="-0.25" y="5.11" angle="180.00" type="passenger" speed="0.13" pos="4.89" lane="E4_0" slope="0.00"/>
        <vehicle id="203" x="-1.95" y="-0.25" angle="90.00" type="passenger" speed="0.12" pos="8.05" lane="E3_0" slope="0.00"/>
        <vehicle id="204" x="-3.62" y="-0.25" angle="90.00" type="passenger" speed="0.13" pos="6.38" lane="E3_0" slope="0.00"/>
        <vehicle id="205" x="-5.44" y="-0.25" angle="90.00" type="passenger" speed="0.13" pos="4.56" lane="E3_0" slope="0.00"/>
        <vehicle id="206" x="-6.73" y="-0.25" angle="90.00" type="passenger" speed="0.12" pos="3.27" lane="E3_0" slope="0.00"/>
    </timestep>
    <timestep time="0.90">
        <vehicle id="201" x="4.39" y="0.25" angle="270.00" type="passenger" speed="0.15" pos="5.61" lane="E5_0" slope="0.00"/>
        <vehicle id="202" x="-0.25" y="5.09" angle="180.00" type="passenger" speed="0.15" pos="4.91" lane="E4_0" slope="0.00"/>
        <vehicle id="203" x="-1.93" y="-0.25" angle="90.00" type="passenger" speed="0.14" pos="8.07" lane="E3_0" slope="0.00"/>
        <vehicle id="204" x="-3.60" y="-0.25" angle="90.00" type="passenger" speed="0.14" pos="6.40" lane="E3_0" slope="0.00"/>
        <vehicle id="205" x="-5.43" y="-0.25" angle="90.00" type="passenger" speed="0.14" pos="4.57" lane="E3_0" slope="0.00"/>
        <vehicle id="206" x="-6.72" y="-0.25" angle="90.00" type="passenger" speed="0.14" pos="3.28" lane="E3_0" slope="0.00"/>
    </timestep>
    <timestep time="1.00">
        <vehicle id="201" x="4.38" y="0.25" angle="270.00" type="passenger" speed="0.17" pos="5.62" lane="E5_0" slope="0.00"/>
        <vehicle id="202" x="-0.25" y="5.07" angle="180.00" type="passenger" speed="0.16" pos="4.93" lane="E4_0" slope="0.00"/>
        <vehicle id="203" x="-1.92" y="-0.25" angle="90.00" type="passenger" speed="0.16" pos="8.08" lane="E3_0" slope="0.00"/>
        <vehicle id="204" x="-3.59" y="-0.25" angle="90.00" type="passenger" speed="0.16" pos="6.41" lane="E3_0" slope="0.00"/>
        <vehicle id="205" x="-5.41" y="-0.25" angle="90.00" type="passenger" speed="0.16" pos="4.59" lane="E3_0" slope="0.00"/>
        <vehicle id="206" x="-6.71" y="-0.25" angle="90.00" type="passenger" speed="0.15" pos="3.29" lane="E3_0" slope="0.00"/>
    </timestep>
    <timestep time="1.10">
        <vehicle id="201" x="4.36" y="0.25" angle="270.00" type="passenger" speed="0.18" pos="5.64" lane="E5_0" slope="0.00"/>
        <vehicle id="202" x="-0.25" y="5.06" angle="180.00" type="passenger" speed="0.18" pos="4.94" lane="E4_0" slope="0.00"/>
        <vehicle id="203" x="-1.90" y="-0.25" angle="90.00" type="passenger" speed="0.17" pos="8.10" lane="E3_0" slope="0.00"/>
        <vehicle id="204" x="-3.57" y="-0.25" angle="90.00" type="passenger" speed="0.18" pos="6.43" lane="E3_0" slope="0.00"/>
        <vehicle id="205" x="-5.40" y="-0.25" angle="90.00" type="passenger" speed="0.18" pos="4.60" lane="E3_0" slope="0.00"/>
        <vehicle id="206" x="-6.69" y="-0.25" angle="90.00" type="passenger" speed="0.17" pos="3.31" lane="E3_0" slope="0.00"/>
    </timestep>
    <timestep time="1.20">
        <vehicle id="201" x="4.34" y="0.25" angle="270.00" type="passenger" speed="0.20" pos="5.66" lane="E5_0" slope="0.00"/>
        <vehicle id="202" x="-0.25" y="5.04" angle="180.00" type="passenger" speed="0.20" pos="4.96" lane="E4_0" slope="0.00"/>
        <vehicle id="203" x="-1.88" y="-0.25" angle="90.00" type="passenger" speed="0.19" pos="8.12" lane="E3_0" slope="0.00"/>
        <vehicle id="204" x="-3.55" y="-0.25" angle="90.00" type="passenger" speed="0.19" pos="6.45" lane="E3_0" slope="0.00"/>
        <vehicle id="205" x="-5.38" y="-0.25" angle="90.00" type="passenger" speed="0.19" pos="4.62" lane="E3_0" slope="0.00"/>
        <vehicle id="206" x="-6.67" y="-0.25" angle="90.00" type="passenger" speed="0.18" pos="3.33" lane="E3_0" slope="0.00"/>
    </timestep>
    <timestep time="1.30">
        <vehicle id="201" x="4.32" y="0.25" angle="270.00" type="passenger" speed="0.22" pos="5.68" lane="E5_0" slope="0.00"/>
        <vehicle id="202" x="-0.25" y="5.02" angle="180.00" type="passenger" speed="0.22" pos="4.98" lane="E4_0" slope="0.00"/>
        <vehicle id="203" x="-1.86" y="-0.25" angle="90.00" type="passenger" speed="0.20" pos="8.14" lane="E3_0" slope="0.00"/>
        <vehicle id="204" x="-3.53" y="-0.25" angle="90.00" type="passenger" speed="0.21" pos="6.47" lane="E3_0" slope="0.00"/>
        <vehicle id="205" x="-5.36" y="-0.25" angle="90.00" type="passenger" speed="0.20" pos="4.64" lane="E3_0" slope="0.00"/>
        <vehicle id="206" x="-6.65" y="-0.25" angle="90.00" type="passenger" speed="0.19" pos="3.35" lane="E3_0" slope="0.00"/>
    </timestep>
    <timestep time="1.40">
        <vehicle id="201" x="4.29" y="0.25" angle="270.00" type="passenger" speed="0.23" pos="5.71" lane="E5_0" slope="0.00"/>
        <vehicle id="202" x="-0.25" y="4.99" angle="180.00" type="passenger" speed="0.23" pos="5.01" lane="E4_0" slope="0.00"/>
        <vehicle id="203" x="-1.84" y="-0.25" angle="90.00" type="passenger" speed="0.21" pos="8.16" lane="E3_0" slope="0.00"/>
        <vehicle id="204" x="-3.51" y="-0.25" angle="90.00" type="passenger" speed="0.22" pos="6.49" lane="E3_0" slope="0.00"/>
        <vehicle id="205" x="-5.33" y="-0.25" angle="90.00" type="passenger" speed="0.22" pos="4.67" lane="E3_0" slope="0.00"/>
        <vehicle id="206" x="-6.63" y="-0.25" angle="90.00" type="passenger" speed="0.21" pos="3.37" lane="E3_0" slope="0.00"/>
    </timestep>
    <timestep time="1.50">
        <vehicle id="201" x="4.27" y="0.25" angle="270.00" type="passenger" speed="0.25" pos="5.73" lane="E5_0" slope="0.00"/>
        <vehicle id="202" x="-0.25" y="4.97" angle="180.00" type="passenger" speed="0.25" pos="5.03" lane="E4_0" slope="0.00"/>
        <vehicle id="203" x="-1.82" y="-0.25" angle="90.00" type="passenger" speed="0.23" pos="8.18" lane="E3_0" slope="0.00"/>
        <vehicle id="204" x="-3.48" y="-0.25" angle="90.00" type="passenger" speed="0.24" pos="6.52" lane="E3_0" slope="0.00"/>
        <vehicle id="205" x="-5.31" y="-0.25" angle="90.00" type="passenger" speed="0.23" pos="4.69" lane="E3_0" slope="0.00"/>
        <vehicle id="206" x="-6.61" y="-0.25" angle="90.00" type="passenger" speed="0.23" pos="3.39" lane="E3_0" slope="0.00"/>
    </timestep>
    <timestep time="1.60">
        <vehicle id="201" x="4.24" y="0.25" angle="270.00" type="passenger" speed="0.27" pos="5.76" lane="E5_0" slope="0.00"/>
        <vehicle id="202" x="-0.25" y="4.94" angle="180.00" type="passenger" speed="0.26" pos="5.06" lane="E4_0" slope="0.00"/>
        <vehicle id="203" x="-1.79" y="-0.25" angle="90.00" type="passenger" speed="0.25" pos="8.21" lane="E3_0" slope="0.00"/>
        <vehicle id="204" x="-3.46" y="-0.25" angle="90.00" type="passenger" speed="0.25" pos="6.54" lane="E3_0" slope="0.00"/>
        <vehicle id="205" x="-5.29" y="-0.25" angle="90.00" type="passenger" speed="0.25" pos="4.71" lane="E3_0" slope="0.00"/>
        <vehicle id="206" x="-6.58" y="-0.25" angle="90.00" type="passenger" speed="0.25" pos="3.42" lane="E3_0" slope="0.00"/>
    </timestep>
    <timestep time="1.70">
        <vehicle id="201" x="4.21" y="0.25" angle="270.00" type="passenger" speed="0.29" pos="5.79" lane="E5_0" slope="0.00"/>
        <vehicle id="202" x="-0.25" y="4.91" angle="180.00" type="passenger" speed="0.27" pos="5.09" lane="E4_0" slope="0.00"/>
        <vehicle id="203" x="-1.77" y="-0.25" angle="90.00" type="passenger" speed="0.27" pos="8.23" lane="E3_0" slope="0.00"/>
        <vehicle id="204" x="-3.43" y="-0.25" angle="90.00" type="passenger" speed="0.26" pos="6.57" lane="E3_0" slope="0.00"/>
        <vehicle id="205" x="-5.26" y="-0.25" angle="90.00" type="passenger" speed="0.26" pos="4.74" lane="E3_0" slope="0.00"/>
        <vehicle id="206" x="-6.56" y="-0.25" angle="90.00" type="passenger" speed="0.26" pos="3.44" lane="E3_0" slope="0.00"/>
    </timestep>
    <timestep time="1.80">
        <vehicle id="201" x="4.18" y="0.25" angle="270.00" type="passenger" speed="0.30" pos="5.82" lane="E5_0" slope="0.00"/>
        <vehicle id="202" x="-0.25" y="4.89" angle="180.00" type="passenger" speed="0.29" pos="5.11" lane="E4_0" slope="0.00"/>
        <vehicle id="203" x="-1.74" y="-0.25" angle="90.00" type="passenger" speed="0.28" pos="8.26" lane="E3_0" slope="0.00"/>
        <vehicle id="204" x="-3.40" y="-0.25" angle="90.00" type="passenger" speed="0.28" pos="6.60" lane="E3_0" slope="0.00"/>
        <vehicle id="205" x="-5.23" y="-0.25" angle="90.00" type="passenger" speed="0.28" pos="4.77" lane="E3_0" slope="0.00"/>
        <vehicle id="206" x="-6.53" y="-0.25" angle="90.00" type="passenger" speed="0.28" pos="3.47" lane="E3_0" slope="0.00"/>
    </timestep>
    <timestep time="1.90">
        <vehicle id="201" x="4.15" y="0.25" angle="270.00" type="passenger" speed="0.31" pos="5.85" lane="E5_0" slope="0.00"/>
        <vehicle id="202" x="-0.25" y="4.85" angle="180.00" type="passenger" speed="0.30" pos="5.15" lane="E4_0" slope="0.00"/>
        <vehicle id="203" x="-1.71" y="-0.25" angle="90.00" type="passenger" speed="0.30" pos="8.29" lane="E3_0" slope="0.00"/>
        <vehicle id="204" x="-3.38" y="-0.25" angle="90.00" type="passenger" speed="0.29" pos="6.62" lane="E3_0" slope="0.00"/>
        <vehicle id="205" x="-5.20" y="-0.25" angle="90.00" type="passenger" speed="0.30" pos="4.80" lane="E3_0" slope="0.00"/>
        <vehicle id="206" x="-6.50" y="-0.25" angle="90.00" type="passenger" speed="0.29" pos="3.50" lane="E3_0" slope="0.00"/>
    </timestep>
    <timestep time="2.00">
        <vehicle id="201" x="4.12" y="0.25" angle="270.00" type="passenger" speed="0.33" pos="5.88" lane="E5_0" slope="0.00"/>
        <vehicle id="202" x="-0.25" y="4.82" angle="180.00" type="passenger" speed="0.32" pos="5.18" lane="E4_0" slope="0.00"/>
        <vehicle id="203" x="-1.68" y="-0.25" angle="90.00" type="passenger" speed="0.32" pos="8.32" lane="E3_0" slope="0.00"/>
        <vehicle id="204" x="-3.34" y="-0.25" angle="90.00" type="passenger" speed="0.31" pos="6.66" lane="E3_0" slope="0.00"/>
        <vehicle id="205" x="-5.17" y="-0.25" angle="90.00" type="passenger" speed="0.31" pos="4.83" lane="E3_0" slope="0.00"/>
        <vehicle id="206" x="-6.47" y="-0.25" angle="90.00" type="passenger" speed="0.31" pos="3.53" lane="E3_0" slope="0.00"/>
    </timestep>
    <timestep time="2.10">
        <vehicle id="201" x="4.08" y="0.25" angle="270.00" type="passenger" speed="0.35" pos="5.92" lane="E5_0" slope="0.00"/>
        <vehicle id="202" x="-0.25" y="4.79" angle="180.00" type="passenger" speed="0.33" pos="5.21" lane="E4_0" slope="0.00"/>
        <vehicle id="203" x="-1.64" y="-0.25" angle="90.00" type="passenger" speed="0.34" pos="8.36" lane="E3_0" slope="0.00"/>
        <vehicle id="204" x="-3.31" y="-0.25" angle="90.00" type="passenger" speed="0.32" pos="6.69" lane="E3_0" slope="0.00"/>
        <vehicle id="205" x="-5.14" y="-0.25" angle="90.00" type="passenger" speed="0.33" pos="4.86" lane="E3_0" slope="0.00"/>
        <vehicle id="206" x="-6.44" y="-0.25" angle="90.00" type="passenger" speed="0.33" pos="3.56" lane="E3_0" slope="0.00"/>
    </timestep>
    <timestep time="2.20">
        <vehicle id="201" x="4.05" y="0.25" angle="270.00" type="passenger" speed="0.37" pos="5.95" lane="E5_0" slope="0.00"/>
        <vehicle id="202" x="-0.25" y="4.76" angle="180.00" type="passenger" speed="0.34" pos="5.24" lane="E4_0" slope="0.00"/>
        <vehicle id="203" x="-1.61" y="-0.25" angle="90.00" type="passenger" speed="0.35" pos="8.39" lane="E3_0" slope="0.00"/>
        <vehicle id="204" x="-3.28" y="-0.25" angle="90.00" type="passenger" speed="0.34" pos="6.72" lane="E3_0" slope="0.00"/>
        <vehicle id="205" x="-5.10" y="-0.25" angle="90.00" type="passenger" speed="0.35" pos="4.90" lane="E3_0" slope="0.00"/>
        <vehicle id="206" x="-6.40" y="-0.25" angle="90.00" type="passenger" speed="0.34" pos="3.60" lane="E3_0" slope="0.00"/>
    </timestep>
    <timestep time="2.30">
        <vehicle id="201" x="4.01" y="0.25" angle="270.00" type="passenger" speed="0.38" pos="5.99" lane="E5_0" slope="0.00"/>
        <vehicle id="202" x="-0.25" y="4.72" angle="180.00" type="passenger" speed="0.35" pos="5.28" lane="E4_0" slope="0.00"/>
        <vehicle id="203" x="-1.57" y="-0.25" angle="90.00" type="passenger" speed="0.37" pos="8.43" lane="E3_0" slope="0.00"/>
        <vehicle id="204" x="-3.24" y="-0.25" angle="90.00" type="passenger" speed="0.35" pos="6.76" lane="E3_0" slope="0.00"/>
        <vehicle id="205" x="-5.07" y="-0.25" angle="90.00" type="passenger" speed="0.36" pos="4.93" lane="E3_0" slope="0.00"/>
        <vehicle id="206" x="-6.37" y="-0.25" angle="90.00" type="passenger" speed="0.35" pos="3.63" lane="E3_0" slope="0.00"/>
    </timestep>
    <timestep time="2.40">
        <vehicle id="201" x="3.97" y="0.25" angle="270.00" type="passenger" speed="0.39" pos="6.03" lane="E5_0" slope="0.00"/>
        <vehicle id="202" x="-0.25" y="4.68" angle="180.00" type="passenger" speed="0.37" pos="5.32" lane="E4_0" slope="0.00"/>
        <vehicle id="203" x="-1.53" y="-0.25" angle="90.00" type="passenger" speed="0.38" pos="8.47" lane="E3_0" slope="0.00"/>
        <vehicle id="204" x="-3.21" y="-0.25" angle="90.00" type="passenger" speed="0.36" pos="6.79" lane="E3_0" slope="0.00"/>
        <vehicle id="205" x="-5.03" y="-0.25" angle="90.00" type="passenger" speed="0.37" pos="4.97" lane="E3_0" slope="0.00"/>
        <vehicle id="206" x="-6.33" y="-0.25" angle="90.00" type="passenger" speed="0.36" pos="3.67" lane="E3_0" slope="0.00"/>
    </timestep>
    <timestep time="2.50">
        <vehicle id="201" x="3.93" y="0.25" angle="270.00" type="passenger" speed="0.41" pos="6.07" lane="E5_0" slope="0.00"/>
        <vehicle id="202" x="-0.25" y="4.65" angle="180.00" type="passenger" speed="0.39" pos="5.35" lane="E4_0" slope="0.00"/>
        <vehicle id="203" x="-1.49" y="-0.25" angle="90.00" type="passenger" speed="0.39" pos="8.51" lane="E3_0" slope="0.00"/>
        <vehicle id="204" x="-3.17" y="-0.25" angle="90.00" type="passenger" speed="0.37" pos="6.83" lane="E3_0" slope="0.00"/>
        <vehicle id="205" x="-4.99" y="-0.25" angle="90.00" type="passenger" speed="0.38" pos="5.01" lane="E3_0" slope="0.00"/>
        <vehicle id="206" x="-6.29" y="-0.25" angle="90.00" type="passenger" speed="0.36" pos="3.71" lane="E3_0" slope="0.00"/>
    </timestep>
    <timestep time="2.60">
        <vehicle id="201" x="3.88" y="0.25" angle="270.00" type="passenger" speed="0.42" pos="6.12" lane="E5_0" slope="0.00"/>
        <vehicle id="202" x="-0.25" y="4.61" angle="180.00" type="passenger" speed="0.40" pos="5.39" lane="E4_0" slope="0.00"/>
        <vehicle id="203" x="-1.45" y="-0.25" angle="90.00" type="passenger" speed="0.41" pos="8.55" lane="E3_0" slope="0.00"/>
        <vehicle id="204" x="-3.13" y="-0.25" angle="90.00" type="passenger" speed="0.39" pos="6.87" lane="E3_0" slope="0.00"/>
        <vehicle id="205" x="-4.95" y="-0.25" angle="90.00" type="passenger" speed="0.40" pos="5.05" lane="E3_0" slope="0.00"/>
        <vehicle id="206" x="-6.26" y="-0.25" angle="90.00" type="passenger" speed="0.37" pos="3.74" lane="E3_0" slope="0.00"/>
    </timestep>
    <timestep time="2.70">
        <vehicle id="201" x="3.84" y="0.25" angle="270.00" type="passenger" speed="0.44" pos="6.16" lane="E5_0" slope="0.00"/>
        <vehicle id="202" x="-0.25" y="4.56" angle="180.00" type="passenger" speed="0.41" pos="5.44" lane="E4_0" slope="0.00"/>
        <vehicle id="203" x="-1.41" y="-0.25" angle="90.00" type="passenger" speed="0.42" pos="8.59" lane="E3_0" slope="0.00"/>
        <vehicle id="204" x="-3.09" y="-0.25" angle="90.00" type="passenger" speed="0.40" pos="6.91" lane="E3_0" slope="0.00"/>
        <vehicle id="205" x="-4.91" y="-0.25" angle="90.00" type="passenger" speed="0.41" pos="5.09" lane="E3_0" slope="0.00"/>
        <vehicle id="206" x="-6.22" y="-0.25" angle="90.00" type="passenger" speed="0.36" pos="3.78" lane="E3_0" slope="0.00"/>
    </timestep>
    <timestep time="2.80">
        <vehicle id="201" x="3.79" y="0.25" angle="270.00" type="passenger" speed="0.46" pos="6.21" lane="E5_0" slope="0.00"/>
        <vehicle id="202" x="-0.25" y="4.52" angle="180.00" type="passenger" speed="0.41" pos="5.48" lane="E4_0" slope="0.00"/>
        <vehicle id="203" x="-1.37" y="-0.25" angle="90.00" type="passenger" speed="0.44" pos="8.63" lane="E3_0" slope="0.00"/>
        <vehicle id="204" x="-3.05" y="-0.25" angle="90.00" type="passenger" speed="0.41" pos="6.95" lane="E3_0" slope="0.00"/>
        <vehicle id="205" x="-4.87" y="-0.25" angle="90.00" type="passenger" speed="0.42" pos="5.13" lane="E3_0" slope="0.00"/>
        <vehicle id="206" x="-6.19" y="-0.25" angle="90.00" type="passenger" speed="0.36" pos="3.81" lane="E3_0" slope="0.00"/>
    </timestep>
    <timestep time="2.90">
        <vehicle id="201" x="3.75" y="0.25" angle="270.00" type="passenger" speed="0.47" pos="6.25" lane="E5_0" slope="0.00"/>
        <vehicle id="202" x="-0.25" y="4.48" angle="180.00" type="passenger" speed="0.42" pos="5.52" lane="E4_0" slope="0.00"/>
        <vehicle id="203" x="-1.32" y="-0.25" angle="90.00" type="passenger" speed="0.45" pos="8.68" lane="E3_0" slope="0.00"/>
        <vehicle id="204" x="-3.01" y="-0.25" angle="90.00" type="passenger" speed="0.43" pos="6.99" lane="E3_0" slope="0.00"/>
        <vehicle id="205" x="-4.82" y="-0.25" angle="90.00" type="passenger" speed="0.44" pos="5.18" lane="E3_0" slope="0.00"/>
        <vehicle id="206" x="-6.15" y="-0.25" angle="90.00" type="passenger" speed="0.36" pos="3.85" lane="E3_0" slope="0.00"/>
    </timestep>
    <timestep time="3.00">
        <vehicle id="201" x="3.70" y="0.25" angle="270.00" type="passenger" speed="0.48" pos="6.30" lane="E5_0" slope="0.00"/>
        <vehicle id="202" x="-0.25" y="4.44" angle="180.00" type="passenger" speed="0.42" pos="5.56" lane="E4_0" slope="0.00"/>
        <vehicle id="203" x="-1.28" y="-0.25" angle="90.00" type="passenger" speed="0.45" pos="8.72" lane="E3_0" slope="0.00"/>
        <vehicle id="204" x="-2.96" y="-0.25" angle="90.00" type="passenger" speed="0.44" pos="7.04" lane="E3_0" slope="0.00"/>
        <vehicle id="205" x="-4.78" y="-0.25" angle="90.00" type="passenger" speed="0.46" pos="5.22" lane="E3_0" slope="0.00"/>
        <vehicle id="206" x="-6.11" y="-0.25" angle="90.00" type="passenger" speed="0.36" pos="3.89" lane="E3_0" slope="0.00"/>
    </timestep>
    <timestep time="3.10">
        <vehicle id="201" x="3.65" y="0.25" angle="270.00" type="passenger" speed="0.48" pos="6.35" lane="E5_0" slope="0.00"/>
        <vehicle id="202" x="-0.25" y="4.40" angle="180.00" type="passenger" speed="0.42" pos="5.60" lane="E4_0" slope="0.00"/>
        <vehicle id="203" x="-1.23" y="-0.25" angle="90.00" type="passenger" speed="0.45" pos="8.77" lane="E3_0" slope="0.00"/>
        <vehicle id="204" x="-2.92" y="-0.25" angle="90.00" type="passenger" speed="0.46" pos="7.08" lane="E3_0" slope="0.00"/>
        <vehicle id="205" x="-4.73" y="-0.25" angle="90.00" type="passenger" speed="0.46" pos="5.27" lane="E3_0" slope="0.00"/>
        <vehicle id="206" x="-6.08" y="-0.25" angle="90.00" type="passenger" speed="0.36" pos="3.92" lane="E3_0" slope="0.00"/>
    </timestep>
    <timestep time="3.20">
        <vehicle id="201" x="3.60" y="0.25" angle="270.00" type="passenger" speed="0.47" pos="6.40" lane="E5_0" slope="0.00"/>
        <vehicle id="202" x="-0.25" y="4.36" angle="180.00" type="passenger" speed="0.42" pos="5.64" lane="E4_0" slope="0.00"/>
        <vehicle id="203" x="-1.19" y="-0.25" angle="90.00" type="passenger" speed="0.45" pos="8.81" lane="E3_0" slope="0.00"/>
        <vehicle id="204" x="-2.87" y="-0.25" angle="90.00" type="passenger" speed="0.47" pos="7.13" lane="E3_0" slope="0.00"/>
        <vehicle id="205" x="-4.69" y="-0.25" angle="90.00" type="passenger" speed="0.46" pos="5.31" lane="E3_0" slope="0.00"/>
        <vehicle id="206" x="-6.04" y="-0.25" angle="90.00" type="passenger" speed="0.36" pos="3.96" lane="E3_0" slope="0.00"/>
    </timestep>
    <timestep time="3.30">
        <vehicle id="201" x="3.56" y="0.25" angle="270.00" type="passenger" speed="0.48" pos="6.44" lane="E5_0" slope="0.00"/>
        <vehicle id="202" x="-0.25" y="4.32" angle="180.00" type="passenger" speed="0.41" pos="5.68" lane="E4_0" slope="0.00"/>
        <vehicle id="203" x="-1.14" y="-0.25" angle="90.00" type="passenger" speed="0.45" pos="8.86" lane="E3_0" slope="0.00"/>
        <vehicle id="204" x="-2.82" y="-0.25" angle="90.00" type="passenger" speed="0.48" pos="7.18" lane="E3_0" slope="0.00"/>
        <vehicle id="205" x="-4.64" y="-0.25" angle="90.00" type="passenger" speed="0.46" pos="5.36" lane="E3_0" slope="0.00"/>
        <vehicle id="206" x="-6.01" y="-0.25" angle="90.00" type="passenger" speed="0.36" pos="3.99" lane="E3_0" slope="0.00"/>
    </timestep>
    <timestep time="3.40">
        <vehicle id="201" x="3.51" y="0.25" angle="270.00" type="passenger" speed="0.47" pos="6.49" lane="E5_0" slope="0.00"/>
        <vehicle id="202" x="-0.25" y="4.27" angle="180.00" type="passenger" speed="0.42" pos="5.73" lane="E4_0" slope="0.00"/>
        <vehicle id="203" x="-1.10" y="-0.25" angle="90.00" type="passenger" speed="0.44" pos="8.90" lane="E3_0" slope="0.00"/>
        <vehicle id="204" x="-2.78" y="-0.25" angle="90.00" type="passenger" speed="0.47" pos="7.22" lane="E3_0" slope="0.00"/>
        <vehicle id="205" x="-4.59" y="-0.25" angle="90.00" type="passenger" speed="0.46" pos="5.41" lane="E3_0" slope="0.00"/>
        <vehicle id="206" x="-5.97" y="-0.25" angle="90.00" type="passenger" speed="0.36" pos="4.03" lane="E3_0" slope="0.00"/>
    </timestep>
    <timestep time="3.50">
        <vehicle id="201" x="3.46" y="0.25" angle="270.00" type="passenger" speed="0.47" pos="6.54" lane="E5_0" slope="0.00"/>
        <vehicle id="202" x="-0.25" y="4.23" angle="180.00" type="passenger" speed="0.42" pos="5.77" lane="E4_0" slope="0.00"/>
        <vehicle id="203" x="-1.05" y="-0.25" angle="90.00" type="passenger" speed="0.42" pos="8.95" lane="E3_0" slope="0.00"/>
        <vehicle id="204" x="-2.73" y="-0.25" angle="90.00" type="passenger" speed="0.47" pos="7.27" lane="E3_0" slope="0.00"/>
        <vehicle id="205" x="-4.55" y="-0.25" angle="90.00" type="passenger" speed="0.46" pos="5.45" lane="E3_0" slope="0.00"/>
        <vehicle id="206" x="-5.93" y="-0.25" angle="90.00" type="passenger" speed="0.36" pos="4.07" lane="E3_0" slope="0.00"/>
    </timestep>
    <timestep time="3.60">
        <vehicle id="201" x="3.41" y="0.25" angle="270.00" type="passenger" speed="0.47" pos="6.59" lane="E5_0" slope="0.00"/>
        <vehicle id="202" x="-0.25" y="4.19" angle="180.00" type="passenger" speed="0.41" pos="5.81" lane="E4_0" slope="0.00"/>
        <vehicle id="203" x="-1.01" y="-0.25" angle="90.00" type="passenger" speed="0.40" pos="8.99" lane="E3_0" slope="0.00"/>