<?xml version="1.0" encoding="UTF-8"?>

<!-- generated on 2024-06-24 15:21:46 by Eclipse SUMO sumo Version 1.20.0
<configuration xmlns:xsi="http://www.w3.org/2001/XMLSchema-instance" xsi:noNamespaceSchemaLocation="http://sumo.dlr.de/xsd/sumoConfiguration.xsd">

    <input>
        <net-file value="scenarios/conv_scenario_155/real_world.net.xml"/>
        <route-files value="scenarios/conv_scenario_155/real_world.vehicles.rou.xml"/>
        <additional-files value="scenarios/conv_scenario_155/real_world.add.xml"/>
    </input>

    <output>
        <fcd-output value="scenarios/conv_scenario_155/fcd.xml"/>
        <lanechange-output value="scenarios/conv_scenario_155/output_lanechange.txt"/>
    </output>

    <time>
        <begin value="0"/>
        <step-length value="0.1"/>
    </time>

    <processing>
        <time-to-teleport value="-1"/>
        <lanechange.duration value="15"/>
    </processing>

    <report>
        <verbose value="true"/>
        <no-step-log value="true"/>
    </report>

</configuration>
-->

<fcd-export xmlns:xsi="http://www.w3.org/2001/XMLSchema-instance" xsi:noNamespaceSchemaLocation="http://sumo.dlr.de/xsd/fcd_file.xsd">
    <timestep time="0.00"/>
    <timestep time="0.10">
        <vehicle id="201" x="2.30" y="0.25" angle="270.00" type="passenger" speed="0.00" pos="7.70" lane="E5_0" slope="0.00"/>
        <vehicle id="202" x="4.60" y="0.25" angle="270.00" type="passenger" speed="0.00" pos="5.40" lane="E5_0" slope="0.00"/>
        <vehicle id="203" x="-0.25" y="1.47" angle="180.00" type="passenger" speed="0.00" pos="8.53" lane="E4_0" slope="0.00"/>
        <vehicle id="204" x="-0.25" y="5.33" angle="180.00" type="passenger" speed="0.00" pos="4.67" lane="E4_0" slope="0.00"/>
        <vehicle id="205" x="-2.23" y="-0.25" angle="90.00" type="passenger" speed="0.00" pos="7.77" lane="E3_0" slope="0.00"/>
        <vehicle id="206" x="-5.87" y="-0.25" angle="90.00" type="passenger" speed="0.00" pos="4.13" lane="E3_0" slope="0.00"/>
    </timestep>
    <timestep time="0.20">
        <vehicle id="201" x="2.30" y="0.25" angle="270.00" type="passenger" speed="0.02" pos="7.70" lane="E5_0" slope="0.00"/>
        <vehicle id="202" x="4.60" y="0.25" angle="270.00" type="passenger" speed="0.02" pos="5.40" lane="E5_0" slope="0.00"/>
        <vehicle id="203" x="-0.25" y="1.46" angle="180.00" type="passenger" speed="0.02" pos="8.54" lane="E4_0" slope="0.00"/>
        <vehicle id="204" x="-0.25" y="5.33" angle="180.00" type="passenger" speed="0.02" pos="4.67" lane="E4_0" slope="0.00"/>
        <vehicle id="205" x="-2.22" y="-0.25" angle="90.00" type="passenger" speed="0.02" pos="7.78" lane="E3_0" slope="0.00"/>
        <vehicle id="206" x="-5.87" y="-0.25" angle="90.00" type="passenger" speed="0.02" pos="4.13" lane="E3_0" slope="0.00"/>
    </timestep>
    <timestep time="0.30">
        <vehicle id="201" x="2.29" y="0.25" angle="270.00" type="passenger" speed="0.04" pos="7.71" lane="E5_0" slope="0.00"/>
        <vehicle id="202" x="4.59" y="0.25" angle="270.00" type="passenger" speed="0.04" pos="5.41" lane="E5_0" slope="0.00"/>
        <vehicle id="203" x="-0.25" y="1.46" angle="180.00" type="passenger" speed="0.04" pos="8.54" lane="E4_0" slope="0.00"/>
        <vehicle id="204" x="-0.25" y="5.32" angle="180.00" type="passenger" speed="0.04" pos="4.68" lane="E4_0" slope="0.00"/>
        <vehicle id="205" x="-2.22" y="-0.25" angle="90.00" type="passenger" speed="0.04" pos="7.78" lane="E3_0" slope="0.00"/>
        <vehicle id="206" x="-5.86" y="-0.25" angle="90.00" type="passenger" speed="0.04" pos="4.14" lane="E3_0" slope="0.00"/>
    </timestep>
    <timestep time="0.40">
        <vehicle id="201" x="2.29" y="0.25" angle="270.00" type="passenger" speed="0.06" pos="7.71" lane="E5_0" slope="0.00"/>
        <vehicle id="202" x="4.59" y="0.25" angle="270.00" type="passenger" speed="0.06" pos="5.41" lane="E5_0" slope="0.00"/>
        <vehicle id="203" x="-0.25" y="1.45" angle="180.00" type="passenger" speed="0.06" pos="8.55" lane="E4_0" slope="0.00"/>
        <vehicle id="204" x="-0.25" y="5.32" angle="180.00" type="passenger" speed="0.06" pos="4.68" lane="E4_0" slope="0.00"/>
        <vehicle id="205" x="-2.21" y="-0.25" angle="90.00" type="passenger" speed="0.06" pos="7.79" lane="E3_0" slope="0.00"/>
        <vehicle id="206" x="-5.86" y="-0.25" angle="90.00" type="passenger" speed="0.06" pos="4.14" lane="E3_0" slope="0.00"/>
    </timestep>
    <timestep time="0.50">
        <vehicle id="201" x="2.28" y="0.25" angle="270.00" type="passenger" speed="0.08" pos="7.72" lane="E5_0" slope="0.00"/>
        <vehicle id="202" x="4.58" y="0.25" angle="270.00" type="passenger" speed="0.08" pos="5.42" lane="E5_0" slope="0.00"/>
        <vehicle id="203" x="-0.25" y="1.45" angle="180.00" type="passenger" speed="0.08" pos="8.55" lane="E4_0" slope="0.00"/>
        <vehicle id="204" x="-0.25" y="5.31" angle="180.00" type="passenger" speed="0.08" pos="4.69" lane="E4_0" slope="0.00"/>
        <vehicle id="205" x="-2.21" y="-0.25" angle="90.00" type="passenger" speed="0.07" pos="7.79" lane="E3_0" slope="0.00"/>
        <vehicle id="206" x="-5.85" y="-0.25" angle="90.00" type="passenger" speed="0.08" pos="4.15" lane="E3_0" slope="0.00"/>
    </timestep>
    <timestep time="0.60">
        <vehicle id="201" x="2.27" y="0.25" angle="270.00" type="passenger" speed="0.10" pos="7.73" lane="E5_0" slope="0.00"/>
        <vehicle id="202" x="4.57" y="0.25" angle="270.00" type="passenger" speed="0.10" pos="5.43" lane="E5_0" slope="0.00"/>
        <vehicle id="203" x="-0.25" y="1.44" angle="180.00" type="passenger" speed="0.10" pos="8.56" lane="E4_0" slope="0.00"/>
        <vehicle id="204" x="-0.25" y="5.30" angle="180.00" type="passenger" speed="0.10" pos="4.70" lane="E4_0" slope="0.00"/>
        <vehicle id="205" x="-2.20" y="-0.25" angle="90.00" type="passenger" speed="0.09" pos="7.80" lane="E3_0" slope="0.00"/>
        <vehicle id="206" x="-5.84" y="-0.25" angle="90.00" type="passenger" speed="0.10" pos="4.16" lane="E3_0" slope="0.00"/>
    </timestep>
    <timestep time="0.70">
        <vehicle id="201" x="2.26" y="0.25" angle="270.00" type="passenger" speed="0.12" pos="7.74" lane="E5_0" slope="0.00"/>
        <vehicle id="202" x="4.56" y="0.25" angle="270.00" type="passenger" speed="0.11" pos="5.44" lane="E5_0" slope="0.00"/>
        <vehicle id="203" x="-0.25" y="1.42" angle="180.00" type="passenger" speed="0.12" pos="8.58" lane="E4_0" slope="0.00"/>
        <vehicle id="204" x="-0.25" y="5.29" angle="180.00" type="passenger" speed="0.12" pos="4.71" lane="E4_0" slope="0.00"/>
        <vehicle id="205" x="-2.19" y="-0.25" angle="90.00" type="passenger" speed="0.11" pos="7.81" lane="E3_0" slope="0.00"/>
        <vehicle id="206" x="-5.83" y="-0.25" angle="90.00" type="passenger" speed="0.11" pos="4.17" lane="E3_0" slope="0.00"/>
    </timestep>
    <timestep time="0.80">
        <vehicle id="201" x="2.24" y="0.25" angle="270.00" type="passenger" speed="0.13" pos="7.76" lane="E5_0" slope="0.00"/>
        <vehicle id="202" x="4.55" y="0.25" angle="270.00" type="passenger" speed="0.13" pos="5.45" lane="E5_0" slope="0.00"/>
        <vehicle id="203" x="-0.25" y="1.41" angle="180.00" type="passenger" speed="0.14" pos="8.59" lane="E4_0" slope="0.00"/>
        <vehicle id="204" x="-0.25" y="5.27" angle="180.00" type="passenger" speed="0.13" pos="4.73" lane="E4_0" slope="0.00"/>
        <vehicle id="205" x="-2.17" y="-0.25" angle="90.00" type="passenger" speed="0.12" pos="7.83" lane="E3_0" slope="0.00"/>
        <vehicle id="206" x="-5.82" y="-0.25" angle="90.00" type="passenger" speed="0.13" pos="4.18" lane="E3_0" slope="0.00"/>
    </timestep>
    <timestep time="0.90">
        <vehicle id="201" x="2.23" y="0.25" angle="270.00" type="passenger" speed="0.15" pos="7.77" lane="E5_0" slope="0.00"/>
        <vehicle id="202" x="4.53" y="0.25" angle="270.00" type="passenger" speed="0.15" pos="5.47" lane="E5_0" slope="0.00"/>
        <vehicle id="203" x="-0.25" y="1.39" angle="180.00" type="passenger" speed="0.16" pos="8.61" lane="E4_0" slope="0.00"/>
        <vehicle id="204" x="-0.25" y="5.26" angle="180.00" type="passenger" speed="0.15" pos="4.74" lane="E4_0" slope="0.00"/>
        <vehicle id="205" x="-2.16" y="-0.25" angle="90.00" type="passenger" speed="0.14" pos="7.84" lane="E3_0" slope="0.00"/>
        <vehicle id="206" x="-5.80" y="-0.25" angle="90.00" type="passenger" speed="0.14" pos="4.20" lane="E3_0" slope="0.00"/>
    </timestep>
    <timestep time="1.00">
        <vehicle id="201" x="2.21" y="0.25" angle="270.00" type="passenger" speed="0.16" pos="7.79" lane="E5_0" slope="0.00"/>
        <vehicle id="202" x="4.51" y="0.25" angle="270.00" type="passenger" speed="0.17" pos="5.49" lane="E5_0" slope="0.00"/>
        <vehicle id="203" x="-0.25" y="1.38" angle="180.00" type="passenger" speed="0.18" pos="8.62" lane="E4_0" slope="0.00"/>
        <vehicle id="204" x="-0.25" y="5.24" angle="180.00" type="passenger" speed="0.17" pos="4.76" lane="E4_0" slope="0.00"/>
        <vehicle id="205" x="-2.14" y="-0.25" angle="90.00" type="passenger" speed="0.16" pos="7.86" lane="E3_0" slope="0.00"/>
        <vehicle id="206" x="-5.79" y="-0.25" angle="90.00" type="passenger" speed="0.16" pos="4.21" lane="E3_0" slope="0.00"/>
    </timestep>
    <timestep time="1.10">
        <vehicle id="201" x="2.19" y="0.25" angle="270.00" type="passenger" speed="0.18" pos="7.81" lane="E5_0" slope="0.00"/>
        <vehicle id="202" x="4.50" y="0.25" angle="270.00" type="passenger" speed="0.18" pos="5.50" lane="E5_0" slope="0.00"/>
        <vehicle id="203" x="-0.25" y="1.36" angle="180.00" type="passenger" speed="0.20" pos="8.64" lane="E4_0" slope="0.00"/>
        <vehicle id="204" x="-0.25" y="5.22" angle="180.00" type="passenger" speed="0.19" pos="4.78" lane="E4_0" slope="0.00"/>
        <vehicle id="205" x="-2.13" y="-0.25" angle="90.00" type="passenger" speed="0.18" pos="7.87" lane="E3_0" slope="0.00"/>
        <vehicle id="206" x="-5.77" y="-0.25" angle="90.00" type="passenger" speed="0.17" pos="4.23" lane="E3_0" slope="0.00"/>
    </timestep>
    <timestep time="1.20">
        <vehicle id="201" x="2.17" y="0.25" angle="270.00" type="passenger" speed="0.20" pos="7.83" lane="E5_0" slope="0.00"/>
        <vehicle id="202" x="4.48" y="0.25" angle="270.00" type="passenger" speed="0.20" pos="5.52" lane="E5_0" slope="0.00"/>
        <vehicle id="203" x="-0.25" y="1.33" angle="180.00" type="passenger" speed="0.22" pos="8.67" lane="E4_0" slope="0.00"/>
        <vehicle id="204" x="-0.25" y="5.20" angle="180.00" type="passenger" speed="0.21" pos="4.80" lane="E4_0" slope="0.00"/>
        <vehicle id="205" x="-2.11" y="-0.25" angle="90.00" type="passenger" speed="0.19" pos="7.89" lane="E3_0" slope="0.00"/>
        <vehicle id="206" x="-5.75" y="-0.25" angle="90.00" type="passenger" speed="0.19" pos="4.25" lane="E3_0" slope="0.00"/>
    </timestep>
    <timestep time="1.30">
        <vehicle id="201" x="2.15" y="0.25" angle="270.00" type="passenger" speed="0.21" pos="7.85" lane="E5_0" slope="0.00"/>
        <vehicle id="202" x="4.45" y="0.25" angle="270.00" type="passenger" speed="0.22" pos="5.55" lane="E5_0" slope="0.00"/>
        <vehicle id="203" x="-0.25" y="1.31" angle="180.00" type="passenger" speed="0.24" pos="8.69" lane="E4_0" slope="0.00"/>
        <vehicle id="204" x="-0.25" y="5.18" angle="180.00" type="passenger" speed="0.23" pos="4.82" lane="E4_0" slope="0.00"/>
        <vehicle id="205" x="-2.09" y="-0.25" angle="90.00" type="passenger" speed="0.20" pos="7.91" lane="E3_0" slope="0.00"/>
        <vehicle id="206" x="-5.73" y="-0.25" angle="90.00" type="passenger" speed="0.21" pos="4.27" lane="E3_0" slope="0.00"/>
    </timestep>
    <timestep time="1.40">
        <vehicle id="201" x="2.13" y="0.25" angle="270.00" type="passenger" speed="0.22" pos="7.87" lane="E5_0" slope="0.00"/>
        <vehicle id="202" x="4.43" y="0.25" angle="270.00" type="passenger" speed="0.23" pos="5.57" lane="E5_0" slope="0.00"/>
        <vehicle id="203" x="-0.25" y="1.28" angle="180.00" type="passenger" speed="0.26" pos="8.72" lane="E4_0" slope="0.00"/>
        <vehicle id="204" x="-0.25" y="5.16" angle="180.00" type="passenger" speed="0.25" pos="4.84" lane="E4_0" slope="0.00"/>
        <vehicle id="205" x="-2.07" y="-0.25" angle="90.00" type="passenger" speed="0.21" pos="7.93" lane="E3_0" slope="0.00"/>
        <vehicle id="206" x="-5.71" y="-0.25" angle="90.00" type="passenger" speed="0.22" pos="4.29" lane="E3_0" slope="0.00"/>
    </timestep>
    <timestep time="1.50">
        <vehicle id="201" x="2.11" y="0.25" angle="270.00" type="passenger" speed="0.24" pos="7.89" lane="E5_0" slope="0.00"/>
        <vehicle id="202" x="4.41" y="0.25" angle="270.00" type="passenger" speed="0.25" pos="5.59" lane="E5_0" slope="0.00"/>
        <vehicle id="203" x="-0.25" y="1.26" angle="180.00" type="passenger" speed="0.28" pos="8.74" lane="E4_0" slope="0.00"/>
        <vehicle id="204" x="-0.25" y="5.13" angle="180.00" type="passenger" speed="0.27" pos="4.87" lane="E4_0" slope="0.00"/>
        <vehicle id="205" x="-2.04" y="-0.25" angle="90.00" type="passenger" speed="0.23" pos="7.96" lane="E3_0" slope="0.00"/>
        <vehicle id="206" x="-5.68" y="-0.25" angle="90.00" type="passenger" speed="0.23" pos="4.32" lane="E3_0" slope="0.00"/>
    </timestep>
    <timestep time="1.60">
        <vehicle id="201" x="2.08" y="0.25" angle="270.00" type="passenger" speed="0.26" pos="7.92" lane="E5_0" slope="0.00"/>
        <vehicle id="202" x="4.38" y="0.25" angle="270.00" type="passenger" speed="0.27" pos="5.62" lane="E5_0" slope="0.00"/>
        <vehicle id="203" x="-0.25" y="1.23" angle="180.00" type="passenger" speed="0.30" pos="8.77" lane="E4_0" slope="0.00"/>
        <vehicle id="204" x="-0.25" y="5.10" angle="180.00" type="passenger" speed="0.29" pos="4.90" lane="E4_0" slope="0.00"/>
        <vehicle id="205" x="-2.02" y="-0.25" angle="90.00" type="passenger" speed="0.24" pos="7.98" lane="E3_0" slope="0.00"/>
        <vehicle id="206" x="-5.66" y="-0.25" angle="90.00" type="passenger" speed="0.25" pos="4.34" lane="E3_0" slope="0.00"/>
    </timestep>
    <timestep time="1.70">
        <vehicle id="201" x="2.05" y="0.25" angle="270.00" type="passenger" speed="0.27" pos="7.95" lane="E5_0" slope="0.00"/>
        <vehicle id="202" x="4.35" y="0.25" angle="270.00" type="passenger" speed="0.29" pos="5.65" lane="E5_0" slope="0.00"/>
        <vehicle id="203" x="-0.25" y="1.19" angle="180.00" type="passenger" speed="0.32" pos="8.81" lane="E4_0" slope="0.00"/>
        <vehicle id="204" x="-0.25" y="5.07" angle="180.00" type="passenger" speed="0.31" pos="4.93" lane="E4_0" slope="0.00"/>
        <vehicle id="205" x="-1.99" y="-0.25" angle="90.00" type="passenger" speed="0.26" pos="8.01" lane="E3_0" slope="0.00"/>
        <vehicle id="206" x="-5.63" y="-0.25" angle="90.00" type="passenger" speed="0.26" pos="4.37" lane="E3_0" slope="0.00"/>
    </timestep>
    <timestep time="1.80">
        <vehicle id="201" x="2.03" y="0.25" angle="270.00" type="passenger" speed="0.28" pos="7.97" lane="E5_0" slope="0.00"/>
        <vehicle id="202" x="4.32" y="0.25" angle="270.00" type="passenger" speed="0.30" pos="5.68" lane="E5_0" slope="0.00"/>
        <vehicle id="203" x="-0.25" y="1.16" angle="180.00" type="passenger" speed="0.34" pos="8.84" lane="E4_0" slope="0.00"/>
        <vehicle id="204" x="-0.25" y="5.04" angle="180.00" type="passenger" speed="0.33" pos="4.96" lane="E4_0" slope="0.00"/>
        <vehicle id="205" x="-1.97" y="-0.25" angle="90.00" type="passenger" speed="0.27" pos="8.03" lane="E3_0" slope="0.00"/>
        <vehicle id="206" x="-5.61" y="-0.25" angle="90.00" type="passenger" speed="0.27" pos="4.39" lane="E3_0" slope="0.00"/>
    </timestep>
    <timestep time="1.90">
        <vehicle id="201" x="2.00" y="0.25" angle="270.00" type="passenger" speed="0.29" pos="8.00" lane="E5_0" slope="0.00"/>
        <vehicle id="202" x="4.29" y="0.25" angle="270.00" type="passenger" speed="0.31" pos="5.71" lane="E5_0" slope="0.00"/>
        <vehicle id="203" x="-0.25" y="1.12" angle="180.00" type="passenger" speed="0.36" pos="8.88" lane="E4_0" slope="0.00"/>
        <vehicle id="204" x="-0.25" y="5.00" angle="180.00" type="passenger" speed="0.35" pos="5.00" lane="E4_0" slope="0.00"/>
        <vehicle id="205" x="-1.94" y="-0.25" angle="90.00" type="passenger" speed="0.29" pos="8.06" lane="E3_0" slope="0.00"/>
        <vehicle id="206" x="-5.58" y="-0.25" angle="90.00" type="passenger" speed="0.29" pos="4.42" lane="E3_0" slope="0.00"/>
    </timestep>
    <timestep time="2.00">
        <vehicle id="201" x="1.97" y="0.25" angle="270.00" type="passenger" speed="0.31" pos="8.03" lane="E5_0" slope="0.00"/>
        <vehicle id="202" x="4.26" y="0.25" angle="270.00" type="passenger" speed="0.33" pos="5.74" lane="E5_0" slope="0.00"/>
        <vehicle id="203" x="-0.25" y="1.09" angle="180.00" type="passenger" speed="0.38" pos="8.91" lane="E4_0" slope="0.00"/>
        <vehicle id="204" x="-0.25" y="4.97" angle="180.00" type="passenger" speed="0.37" pos="5.03" lane="E4_0" slope="0.00"/>
        <vehicle id="205" x="-1.91" y="-0.25" angle="90.00" type="passenger" speed="0.30" pos="8.09" lane="E3_0" slope="0.00"/>
        <vehicle id="206" x="-5.55" y="-0.25" angle="90.00" type="passenger" speed="0.30" pos="4.45" lane="E3_0" slope="0.00"/>
    </timestep>
    <timestep time="2.10">
        <vehicle id="201" x="1.93" y="0.25" angle="270.00" type="passenger" speed="0.33" pos="8.07" lane="E5_0" slope="0.00"/>
        <vehicle id="202" x="4.22" y="0.25" angle="270.00" type="passenger" speed="0.34" pos="5.78" lane="E5_0" slope="0.00"/>
        <vehicle id="203" x="-0.25" y="1.05" angle="180.00" type="passenger" speed="0.40" pos="8.95" lane="E4_0" slope="0.00"/>
        <vehicle id="204" x="-0.25" y="4.93" angle="180.00" type="passenger" speed="0.39" pos="5.07" lane="E4_0" slope="0.00"/>
        <vehicle id="205" x="-1.88" y="-0.25" angle="90.00" type="passenger" speed="0.32" pos="8.12" lane="E3_0" slope="0.00"/>
        <vehicle id="206" x="-5.52" y="-0.25" angle="90.00" type="passenger" speed="0.31" pos="4.48" lane="E3_0" slope="0.00"/>
    </timestep>
    <timestep time="2.20">
        <vehicle id="201" x="1.90" y="0.25" angle="270.00" type="passenger" speed="0.34" pos="8.10" lane="E5_0" slope="0.00"/>
        <vehicle id="202" x="4.19" y="0.25" angle="270.00" type="passenger" speed="0.36" pos="5.81" lane="E5_0" slope="0.00"/>
        <vehicle id="203" x="-0.25" y="1.01" angle="180.00" type="passenger" speed="0.41" pos="8.99" lane="E4_0" slope="0.00"/>
        <vehicle id="204" x="-0.25" y="4.89" angle="180.00" type="passenger" speed="0.41" pos="5.11" lane="E4_0" slope="0.00"/>
        <vehicle id="205" x="-1.84" y="-0.25" angle="90.00" type="passenger" speed="0.34" pos="8.16" lane="E3_0" slope="0.00"/>
        <vehicle id="206" x="-5.48" y="-0.25" angle="90.00" type="passenger" speed="0.33" pos="4.52" lane="E3_0" slope="0.00"/>
    </timestep>
    <timestep time="2.30">
        <vehicle id="201" x="1.86" y="0.25" angle="270.00" type="passenger" speed="0.35" pos="8.14" lane="E5_0" slope="0.00"/>
        <vehicle id="202" x="4.15" y="0.25" angle="270.00" type="passenger" speed="0.37" pos="5.85" lane="E5_0" slope="0.00"/>
        <vehicle id="203" x="-0.25" y="0.97" angle="180.00" type="passenger" speed="0.39" pos="9.03" lane="E4_0" slope="0.00"/>
        <vehicle id="204" x="-0.25" y="4.85" angle="180.00" type="passenger" speed="0.43" pos="5.15" lane="E4_0" slope="0.00"/>
        <vehicle id="205" x="-1.81" y="-0.25" angle="90.00" type="passenger" speed="0.35" pos="8.19" lane="E3_0" slope="0.00"/>
        <vehicle id="206" x="-5.45" y="-0.25" angle="90.00" type="passenger" speed="0.34" pos="4.55" lane="E3_0" slope="0.00"/>
    </timestep>
    <timestep time="2.40">
        <vehicle id="201" x="1.83" y="0.25" angle="270.00" type="passenger" speed="0.37" pos="8.17" lane="E5_0" slope="0.00"/>
        <vehicle id="202" x="4.11" y="0.25" angle="270.00" type="passenger" speed="0.39" pos="5.89" lane="E5_0" slope="0.00"/>
        <vehicle id="203" x="-0.25" y="0.93" angle="180.00" type="passenger" speed="0.37" pos="9.07" lane="E4_0" slope="0.00"/>
        <vehicle id="204" x="-0.25" y="4.80" angle="180.00" type="passenger" speed="0.45" pos="5.20" lane="E4_0" slope="0.00"/>
        <vehicle id="205" x="-1.77" y="-0.25" angle="90.00" type="passenger" speed="0.37" pos="8.23" lane="E3_0" slope="0.00"/>
        <vehicle id="206" x="-5.41" y="-0.25" angle="90.00" type="passenger" speed="0.36" pos="4.59" lane="E3_0" slope="0.00"/>
    </timestep>
    <timestep time="2.50">
        <vehicle id="201" x="1.79" y="0.25" angle="270.00" type="passenger" speed="0.38" pos="8.21" lane="E5_0" slope="0.00"/>
        <vehicle id="202" x="4.07" y="0.25" angle="270.00" type="passenger" speed="0.40" pos="5.93" lane="E5_0" slope="0.00"/>
        <vehicle id="203" x="-0.25" y="0.90" angle="180.00" type="passenger" speed="0.35" pos="9.10" lane="E4_0" slope="0.00"/>
        <vehicle id="204" x="-0.25" y="4.75" angle="180.00" type="passenger" speed="0.47" pos="5.25" lane="E4_0" slope="0.00"/>
        <vehicle id="205" x="-1.73" y="-0.25" angle="90.00" type="passenger" speed="0.38" pos="8.27" lane="E3_0" slope="0.00"/>
        <vehicle id="206" x="-5.38" y="-0.25" angle="90.00" type="passenger" speed="0.36" pos="4.62" lane="E3_0" slope="0.00"/>
    </timestep>
    <timestep time="2.60">
        <vehicle id="201" x="1.75" y="0.25" angle="270.00" type="passenger" speed="0.40" pos="8.25" lane="E5_0" slope="0.00"/>
        <vehicle id="202" x="4.03" y="0.25" angle="270.00" type="passenger" speed="0.42" pos="5.97" lane="E5_0" slope="0.00"/>
        <vehicle id="203" x="-0.25" y="0.86" angle="180.00" type="passenger" speed="0.33" pos="9.14" lane="E4_0" slope="0.00"/>
        <vehicle id="204" x="-0.25" y="4.71" angle="180.00" type="passenger" speed="0.48" pos="5.29" lane="E4_0" slope="0.00"/>
        <vehicle id="205" x="-1.69" y="-0.25" angle="90.00" type="passenger" speed="0.39" pos="8.31" lane="E3_0" slope="0.00"/>
        <vehicle id="206" x="-5.34" y="-0.25" angle="90.00" type="passenger" speed="0.36" pos="4.66" lane="E3_0" slope="0.00"/>
    </timestep>
    <timestep time="2.70">
        <vehicle id="201" x="1.71" y="0.25" angle="270.00" type="passenger" speed="0.42" pos="8.29" lane="E5_0" slope="0.00"/>
        <vehicle id="202" x="3.99" y="0.25" angle="270.00" type="passenger" speed="0.41" pos="6.01" lane="E5_0" slope="0.00"/>
        <vehicle id="203" x="-0.25" y="0.83" angle="180.00" type="passenger" speed="0.31" pos="9.17" lane="E4_0" slope="0.00"/>
        <vehicle id="204" x="-0.25" y="4.66" angle="180.00" type="passenger" speed="0.48" pos="5.34" lane="E4_0" slope="0.00"/>
        <vehicle id="205" x="-1.65" y="-0.25" angle="90.00" type="passenger" speed="0.41" pos="8.35" lane="E3_0" slope="0.00"/>
        <vehicle id="206" x="-5.31" y="-0.25" angle="90.00" type="passenger" speed="0.36" pos="4.69" lane="E3_0" slope="0.00"/>
    </timestep>
    <timestep time="2.80">
        <vehicle id="201" x="1.67" y="0.25" angle="270.00" type="passenger" speed="0.43" pos="8.33" lane="E5_0" slope="0.00"/>
        <vehicle id="202" x="3.95" y="0.25" angle="270.00" type="passenger" speed="0.42" pos="6.05" lane="E5_0" slope="0.00"/>
        <vehicle id="203" x="-0.25" y="0.80" angle="180.00" type="passenger" speed="0.29" pos="9.20" lane="E4_0" slope="0.00"/>
        <vehicle id="204" x="-0.25" y="4.61" angle="180.00" type="passenger" speed="0.48" pos="5.39" lane="E4_0" slope="0.00"/>
        <vehicle id="205" x="-1.61" y="-0.25" angle="90.00" type="passenger" speed="0.42" pos="8.39" lane="E3_0" slope="0.00"/>
        <vehicle id="206" x="-5.27" y="-0.25" angle="90.00" type="passenger" speed="0.36" pos="4.73" lane="E3_0" slope="0.00"/>
    </timestep>
    <timestep time="2.90">
        <vehicle id="201" x="1.62" y="0.25" angle="270.00" type="passenger" speed="0.44" pos="8.38" lane="E5_0" slope="0.00"/>
        <vehicle id="202" x="3.91" y="0.25" angle="270.00" type="passenger" speed="0.42" pos="6.09" lane="E5_0" slope="0.00"/>
        <vehicle id="203" x="-0.25" y="0.78" angle="180.00" type="passenger" speed="0.27" pos="9.22" lane="E4_0" slope="0.00"/>
        <vehicle id="204" x="-0.25" y="4.56" angle="180.00" type="passenger" speed="0.48" pos="5.44" lane="E4_0" slope="0.00"/>
        <vehicle id="205" x="-1.57" y="-0.25" angle="90.00" type="passenger" speed="0.44" pos="8.43" lane="E3_0" slope="0.00"/>
        <vehicle id="206" x="-5.23" y="-0.25" angle="90.00" type="passenger" speed="0.36" pos="4.77" lane="E3_0" slope="0.00"/>
    </timestep>
    <timestep time="3.00">
        <vehicle id="201" x="1.57" y="0.25" angle="270.00" type="passenger" speed="0.46" pos="8.43" lane="E5_0" slope="0.00"/>
        <vehicle id="202" x="3.86" y="0.25" angle="270.00" type="passenger" speed="0.41" pos="6.14" lane="E5_0" slope="0.00"/>
        <vehicle id="203" x="-0.25" y="0.75" angle="180.00" type="passenger" speed="0.25" pos="9.25" lane="E4_0" slope="0.00"/>
        <vehicle id="204" x="-0.25" y="4.51" angle="180.00" type="passenger" speed="0.48" pos="5.49" lane="E4_0" slope="0.00"/>
        <vehicle id="205" x="-1.52" y="-0.25" angle="90.00" type="passenger" speed="0.45" pos="8.48" lane="E3_0" slope="0.00"/>
        <vehicle id="206" x="-5.20" y="-0.25" angle="90.00" type="passenger" speed="0.36" pos="4.80" lane="E3_0" slope="0.00"/>
    </timestep>
    <timestep time="3.10">
        <vehicle id="201" x="1.53" y="0.25" angle="270.00" type="passenger" speed="0.47" pos="8.47" lane="E5_0" slope="0.00"/>
        <vehicle id="202" x="3.82" y="0.25" angle="270.00" type="passenger" speed="0.42" pos="6.18" lane="E5_0" slope="0.00"/>
        <vehicle id="203" x="-0.25" y="0.73" angle="180.54" type="passenger" speed="0.23" pos="0.02" lane=":J7_0_0" slope="0.00"/>
        <vehicle id="204" x="-0.25" y="4.47" angle="180.00" type="passenger" speed="0.48" pos="5.53" lane="E4_0" slope="0.00"/>
        <vehicle id="205" x="-1.47" y="-0.25" angle="90.00" type="passenger" speed="0.46" pos="8.53" lane="E3_0" slope="0.00"/>
        <vehicle id="206" x="-5.16" y="-0.25" angle="90.00" type="passenger" speed="0.36" pos="4.84" lane="E3_0" slope="0.00"/>
    </timestep>
    <timestep time="3.20">
        <vehicle id="201" x="1.48" y="0.25" angle="270.00" type="passenger" speed="0.48" pos="8.52" lane="E5_0" slope="0.00"/>
        <vehicle id="202" x="3.78" y="0.25" angle="270.00" type="passenger" speed="0.42" pos="6.22" lane="E5_0" slope="0.00"/>
        <vehicle id="203" x="-0.26" y="0.71" angle="181.11" type="passenger" speed="0.22" pos="0.04" lane=":J7_0_0" slope="0.00"/>
        <vehicle id="204" x="-0.25" y="4.42" angle="180.00" type="passenger" speed="0.48" pos="5.58" lane="E4_0" slope="0.00"/>
        <vehicle id="205" x="-1.43" y="-0.25" angle="90.00" type="passenger" speed="0.46" pos="8.57" lane="E3_0" slope="0.00"/>
        <vehicle id="206" x="-5.13" y="-0.25" angle="90.00" type="passenger" speed="0.36" pos="4.87" lane="E3_0" slope="0.00"/>
    </timestep>
    <timestep time="3.30">
        <vehicle id="201" x="1.43" y="0.25" angle="270.00" type="passenger" speed="0.47" pos="8.57" lane="E5_0" slope="0.00"/>
        <vehicle id="202" x="3.74" y="0.25" angle="270.00" type="passenger" speed="0.42" pos="6.26" lane="E5_0" slope="0.00"/>
        <vehicle id="203" x="-0.26" y="0.69" angle="181.67" type="passenger" speed="0.22" pos="0.07" lane=":J7_0_0" slope="0.00"/>
        <vehicle id="204" x="-0.25" y="4.37" angle="180.00" type="passenger" speed="0.48" pos="5.63" lane="E4_0" slope="0.00"/>
        <vehicle id="205" x="-1.38" y="-0.25" angle="90.00" type="passenger" speed="0.46" pos="8.62" lane="E3_0" slope="0.00"/>
        <vehicle id="206" x="-5.09" y="-0.25" angle="90.00" type="passenger" speed="0.36" pos="4.91" lane="E3_0" slope="0.00"/>
    </timestep>
    <timestep time="3.40">
        <vehicle id="201" x="1.38" y="0.25" angle="270.00" type="passenger" speed="0.48" pos="8.62" lane="E5_0" slope="0.00"/>
        <vehicle id="202" x="3.70" y="0.25" angle="270.00" type="passenger" speed="0.41" pos="6.30" lane="E5_0" slope="0.00"/>
        <vehicle id="203" x="-0.26" y="0.66" angle="182.26" type="passenger" speed="0.23" pos="0.09" lane=":J7_0_0" slope="0.00"/>
        <vehicle id="204" x="-0.25" y="4.32" angle="180.00" type="passenger" speed="0.48" pos="5.68" lane="E4_0" slope="0.00"/>
        <vehicle id="205" x="-1.34" y="-0.25" angle="90.00" type="passenger" speed="0.46" pos="8.66" lane="E3_0" slope="0.00"/>
        <vehicle id="206" x="-5.05" y="-0.25" angle="90.00" type="passenger" speed="0.36" pos="4.95" lane="E3_0" slope="0.00"/>
    </timestep>
    <timestep time="3.50">
        <vehicle id="201" x="1.34" y="0.25" angle="270.00" type="passenger" speed="0.47" pos="8.66" lane="E5_0" slope="0.00"/>
        <vehicle id="202" x="3.66" y="0.25" angle="270.00" type="passenger" speed="0.41" pos="6.34" lane="E5_0" slope="0.00"/>
        <vehicle id="203" x="-0.26" y="0.64" angle="182.84" type="passenger" speed="0.22" pos="0.11" lane=":J7_0_0" slope="0.00"/>
        <vehicle id="204" x="-0.25" y="4.27" angle="180.00" type="passenger" speed="0.48" pos="5.73" lane="E4_0" slope="0.00"/>
        <vehicle id="205" x="-1.29" y="-0.25" angle="90.00" type="passenger" speed="0.46" pos="8.71" lane="E3_0" slope="0.00"/>
        <vehicle id="206" x="-5.02" y="-0.25" angle="90.00" type="passenger" speed="0.36" pos="4.98" lane="E3_0" slope="0.00"/>
    </timestep>
    <timestep time="3.60">
        <vehicle id="201" x="1.29" y="0.25" angle="270.00" type="passenger" speed="0.47" pos="8.71" lane="E5_0" slope="0.00"/>
        <vehicle id="202" x="3.61" y="0.25" angle="270.00" type="passenger" speed="0.41" pos="6.39" lane="E5_0" slope="0.00"/>
        <vehicle id="203" x="-0.27" y="0.62" angle="183.41" type="passenger" speed="0.22" pos="0.13" lane=":J7_0_0" slope="0.00"/>