<?xml version="1.0" encoding="UTF-8"?>

<!-- generated on 2024-07-02 10:41:53 by Eclipse SUMO sumo Version 1.20.0
<configuration xmlns:xsi="http://www.w3.org/2001/XMLSchema-instance" xsi:noNamespaceSchemaLocation="http://sumo.dlr.de/xsd/sumoConfiguration.xsd">

    <input>
        <net-file value="scenarios_static/east_west_scenario/real_world.net.xml"/>
        <route-files value="scenarios_static/east_west_scenario/real_world.vehicles.rou.xml"/>
        <additional-files value="scenarios_static/east_west_scenario/real_world.add.xml"/>
    </input>

    <output>
        <fcd-output value="scenarios_static/east_west_scenario/fcd.xml"/>
        <lanechange-output value="scenarios_static/east_west_scenario/output_lanechange.txt"/>
    </output>

    <time>
        <begin value="0"/>
        <step-length value="0.1"/>
    </time>

    <processing>
        <time-to-teleport value="-1"/>
        <lanechange.duration value="15"/>
    </processing>

    <report>
        <verbose value="true"/>
        <no-step-log value="true"/>
    </report>

</configuration>
-->

<fcd-export xmlns:xsi="http://www.w3.org/2001/XMLSchema-instance" xsi:noNamespaceSchemaLocation="http://sumo.dlr.de/xsd/fcd_file.xsd">
    <timestep time="0.00"/>
    <timestep time="0.10">
        <vehicle id="1" x="2.00" y="0.25" angle="270.00" type="passenger" speed="0.00" pos="8.00" lane="E5_0" slope="0.00"/>
    </timestep>
    <timestep time="0.20">
        <vehicle id="1" x="2.00" y="0.25" angle="270.00" type="passenger" speed="0.02" pos="8.00" lane="E5_0" slope="0.00"/>
    </timestep>
    <timestep time="0.30">
        <vehicle id="1" x="1.99" y="0.25" angle="270.00" type="passenger" speed="0.04" pos="8.01" lane="E5_0" slope="0.00"/>
    </timestep>
    <timestep time="0.40">
        <vehicle id="1" x="1.99" y="0.25" angle="270.00" type="passenger" speed="0.06" pos="8.01" lane="E5_0" slope="0.00"/>
    </timestep>
    <timestep time="0.50">
        <vehicle id="1" x="1.98" y="0.25" angle="270.00" type="passenger" speed="0.08" pos="8.02" lane="E5_0" slope="0.00"/>
    </timestep>
    <timestep time="0.60">
        <vehicle id="1" x="1.97" y="0.25" angle="270.00" type="passenger" speed="0.10" pos="8.03" lane="E5_0" slope="0.00"/>
    </timestep>
    <timestep time="0.70">
        <vehicle id="1" x="1.96" y="0.25" angle="270.00" type="passenger" speed="0.11" pos="8.04" lane="E5_0" slope="0.00"/>
    </timestep>
    <timestep time="0.80">
        <vehicle id="1" x="1.95" y="0.25" angle="270.00" type="passenger" speed="0.13" pos="8.05" lane="E5_0" slope="0.00"/>
    </timestep>
    <timestep time="0.90">
        <vehicle id="1" x="1.93" y="0.25" angle="270.00" type="passenger" speed="0.15" pos="8.07" lane="E5_0" slope="0.00"/>
    </timestep>
    <timestep time="1.00">
        <vehicle id="1" x="1.91" y="0.25" angle="270.00" type="passenger" speed="0.17" pos="8.09" lane="E5_0" slope="0.00"/>
    </timestep>
    <timestep time="1.10">
        <vehicle id="1" x="1.90" y="0.25" angle="270.00" type="passenger" speed="0.18" pos="8.10" lane="E5_0" slope="0.00"/>
    </timestep>
    <timestep time="1.20">
        <vehicle id="1" x="1.88" y="0.25" angle="270.00" type="passenger" speed="0.20" pos="8.12" lane="E5_0" slope="0.00"/>
    </timestep>
    <timestep time="1.30">
        <vehicle id="1" x="1.85" y="0.25" angle="270.00" type="passenger" speed="0.22" pos="8.15" lane="E5_0" slope="0.00"/>
    </timestep>
    <timestep time="1.40">
        <vehicle id="1" x="1.83" y="0.25" angle="270.00" type="passenger" speed="0.23" pos="8.17" lane="E5_0" slope="0.00"/>
    </timestep>
    <timestep time="1.50">
        <vehicle id="1" x="1.80" y="0.25" angle="270.00" type="passenger" speed="0.25" pos="8.20" lane="E5_0" slope="0.00"/>
    </timestep>
    <timestep time="1.60">
        <vehicle id="1" x="1.78" y="0.25" angle="270.00" type="passenger" speed="0.27" pos="8.22" lane="E5_0" slope="0.00"/>
    </timestep>
    <timestep time="1.70">
        <vehicle id="1" x="1.75" y="0.25" angle="270.00" type="passenger" speed="0.29" pos="8.25" lane="E5_0" slope="0.00"/>
    </timestep>
    <timestep time="1.80">
        <vehicle id="1" x="1.72" y="0.25" angle="270.00" type="passenger" speed="0.30" pos="8.28" lane="E5_0" slope="0.00"/>
    </timestep>
    <timestep time="1.90">
        <vehicle id="1" x="1.69" y="0.25" angle="270.00" type="passenger" speed="0.31" pos="8.31" lane="E5_0" slope="0.00"/>
    </timestep>
    <timestep time="2.00">
        <vehicle id="1" x="1.65" y="0.25" angle="270.00" type="passenger" speed="0.33" pos="8.35" lane="E5_0" slope="0.00"/>
    </timestep>
    <timestep time="2.10">
        <vehicle id="1" x="1.62" y="0.25" angle="270.00" type="passenger" speed="0.35" pos="8.38" lane="E5_0" slope="0.00"/>
    </timestep>
    <timestep time="2.20">
        <vehicle id="1" x="1.58" y="0.25" angle="270.00" type="passenger" speed="0.37" pos="8.42" lane="E5_0" slope="0.00"/>
    </timestep>
    <timestep time="2.30">
        <vehicle id="1" x="1.54" y="0.25" angle="270.00" type="passenger" speed="0.38" pos="8.46" lane="E5_0" slope="0.00"/>
    </timestep>
    <timestep time="2.40">
        <vehicle id="1" x="1.51" y="0.25" angle="270.00" type="passenger" speed="0.39" pos="8.49" lane="E5_0" slope="0.00"/>
    </timestep>
    <timestep time="2.50">
        <vehicle id="1" x="1.47" y="0.25" angle="270.00" type="passenger" speed="0.40" pos="8.53" lane="E5_0" slope="0.00"/>
    </timestep>
    <timestep time="2.60">
        <vehicle id="1" x="1.43" y="0.25" angle="270.00" type="passenger" speed="0.39" pos="8.57" lane="E5_0" slope="0.00"/>
    </timestep>
    <timestep time="2.70">
        <vehicle id="1" x="1.39" y="0.25" angle="270.00" type="passenger" speed="0.40" pos="8.61" lane="E5_0" slope="0.00"/>
    </timestep>
    <timestep time="2.80">
        <vehicle id="1" x="1.35" y="0.25" angle="270.00" type="passenger" speed="0.40" pos="8.65" lane="E5_0" slope="0.00"/>
    </timestep>
    <timestep time="2.90">
        <vehicle id="1" x="1.31" y="0.25" angle="270.00" type="passenger" speed="0.40" pos="8.69" lane="E5_0" slope="0.00"/>
    </timestep>
    <timestep time="3.00">
        <vehicle id="1" x="1.27" y="0.25" angle="270.00" type="passenger" speed="0.40" pos="8.73" lane="E5_0" slope="0.00"/>
    </timestep>
    <timestep time="3.10">
        <vehicle id="1" x="1.23" y="0.25" angle="270.00" type="passenger" speed="0.40" pos="8.77" lane="E5_0" slope="0.00"/>
    </timestep>
    <timestep time="3.20">
        <vehicle id="1" x="1.19" y="0.25" angle="270.00" type="passenger" speed="0.39" pos="8.81" lane="E5_0" slope="0.00"/>
    </timestep>
    <timestep time="3.30">
        <vehicle id="1" x="1.15" y="0.25" angle="270.00" type="passenger" speed="0.40" pos="8.85" lane="E5_0" slope="0.00"/>
    </timestep>
    <timestep time="3.40">
        <vehicle id="1" x="1.11" y="0.25" angle="270.00" type="passenger" speed="0.39" pos="8.89" lane="E5_0" slope="0.00"/>
    </timestep>
    <timestep time="3.50">
        <vehicle id="1" x="1.07" y="0.25" angle="270.00" type="passenger" speed="0.39" pos="8.93" lane="E5_0" slope="0.00"/>
    </timestep>
    <timestep time="3.60">
        <vehicle id="1" x="1.03" y="0.25" angle="270.00" type="passenger" speed="0.39" pos="8.97" lane="E5_0" slope="0.00"/>
    </timestep>
    <timestep time="3.70">
        <vehicle id="1" x="0.99" y="0.25" angle="270.00" type="passenger" speed="0.40" pos="9.01" lane="E5_0" slope="0.00"/>
    </timestep>
    <timestep time="3.80">
        <vehicle id="1" x="0.95" y="0.25" angle="270.00" type="passenger" speed="0.40" pos="9.05" lane="E5_0" slope="0.00"/>
    </timestep>
    <timestep time="3.90">
        <vehicle id="1" x="0.91" y="0.25" angle="270.00" type="passenger" speed="0.39" pos="9.09" lane="E5_0" slope="0.00"/>
    </timestep>
    <timestep time="4.00">
        <vehicle id="1" x="0.87" y="0.25" angle="270.00" type="passenger" speed="0.40" pos="9.13" lane="E5_0" slope="0.00"/>
    </timestep>
    <timestep time="4.10">
        <vehicle id="1" x="0.83" y="0.25" angle="270.00" type="passenger" speed="0.39" pos="9.17" lane="E5_0" slope="0.00"/>
    </timestep>
    <timestep time="4.20">
        <vehicle id="1" x="0.79" y="0.25" angle="270.00" type="passenger" speed="0.39" pos="9.21" lane="E5_0" slope="0.00"/>
    </timestep>
    <timestep time="4.30">
        <vehicle id="1" x="0.75" y="0.25" angle="270.00" type="passenger" speed="0.40" pos="9.25" lane="E5_0" slope="0.00"/>
    </timestep>
    <timestep time="4.40">
        <vehicle id="1" x="0.71" y="0.25" angle="270.00" type="passenger" speed="0.39" pos="0.04" lane=":J7_4_0" slope="0.00"/>
    </timestep>
    <timestep time="4.50">
        <vehicle id="1" x="0.68" y="0.25" angle="270.00" type="passenger" speed="0.40" pos="0.07" lane=":J7_4_0" slope="0.00"/>
    </timestep>
    <timestep time="4.60">
        <vehicle id="1" x="0.64" y="0.25" angle="270.00" type="passenger" speed="0.40" pos="0.11" lane=":J7_4_0" slope="0.00"/>
    </timestep>
    <timestep time="4.70">
        <vehicle id="1" x="0.60" y="0.25" angle="270.00" type="passenger" speed="0.40" pos="0.15" lane=":J7_4_0" slope="0.00"/>
    </timestep>
    <timestep time="4.80">
        <vehicle id="1" x="0.56" y="0.25" angle="270.00" type="passenger" speed="0.39" pos="0.19" lane=":J7_4_0" slope="0.00"/>
    </timestep>
    <timestep time="4.90">
        <vehicle id="1" x="0.52" y="0.25" angle="270.00" type="passenger" speed="0.39" pos="0.23" lane=":J7_4_0" slope="0.00"/>
    </timestep>
    <timestep time="5.00">
        <vehicle id="1" x="0.48" y="0.25" angle="270.00" type="passenger" speed="0.39" pos="0.27" lane=":J7_4_0" slope="0.00"/>
    </timestep>
    <timestep time="5.10">
        <vehicle id="1" x="0.44" y="0.25" angle="270.00" type="passenger" speed="0.39" pos="0.31" lane=":J7_4_0" slope="0.00"/>
    </timestep>
    <timestep time="5.20">
        <vehicle id="1" x="0.40" y="0.25" angle="270.00" type="passenger" speed="0.39" pos="0.35" lane=":J7_4_0" slope="0.00"/>
    </timestep>
    <timestep time="5.30">
        <vehicle id="1" x="0.36" y="0.25" angle="270.00" type="passenger" speed="0.39" pos="0.39" lane=":J7_4_0" slope="0.00"/>
    </timestep>
    <timestep time="5.40">
        <vehicle id="1" x="0.32" y="0.25" angle="270.00" type="passenger" speed="0.40" pos="0.43" lane=":J7_4_0" slope="0.00"/>
    </timestep>
    <timestep time="5.50">
        <vehicle id="1" x="0.28" y="0.25" angle="270.00" type="passenger" speed="0.39" pos="0.47" lane=":J7_4_0" slope="0.00"/>
    </timestep>
    <timestep time="5.60">
        <vehicle id="1" x="0.24" y="0.25" angle="270.00" type="passenger" speed="0.40" pos="0.51" lane=":J7_4_0" slope="0.00"/>
    </timestep>
    <timestep time="5.70">
        <vehicle id="1" x="0.20" y="0.25" angle="270.00" type="passenger" speed="0.39" pos="0.55" lane=":J7_4_0" slope="0.00"/>
    </timestep>
    <timestep time="5.80">
        <vehicle id="1" x="0.16" y="0.25" angle="270.00" type="passenger" speed="0.39" pos="0.59" lane=":J7_4_0" slope="0.00"/>
    </timestep>
    <timestep time="5.90">
        <vehicle id="1" x="0.12" y="0.25" angle="270.00" type="passenger" speed="0.39" pos="0.63" lane=":J7_4_0" slope="0.00"/>
    </timestep>
    <timestep time="6.00">
        <vehicle id="1" x="0.09" y="0.25" angle="270.00" type="passenger" speed="0.39" pos="0.66" lane=":J7_4_0" slope="0.00"/>
    </timestep>
    <timestep time="6.10">
        <vehicle id="1" x="0.05" y="0.25" angle="270.00" type="passenger" speed="0.39" pos="0.70" lane=":J7_4_0" slope="0.00"/>
    </timestep>
    <timestep time="6.20">
        <vehicle id="1" x="0.01" y="0.25" angle="270.00" type="passenger" speed="0.40" pos="0.74" lane=":J7_4_0" slope="0.00"/>
    </timestep>
    <timestep time="6.30">
        <vehicle id="1" x="-0.03" y="0.25" angle="270.00" type="passenger" speed="0.39" pos="0.78" lane=":J7_4_0" slope="0.00"/>
    </timestep>
    <timestep time="6.40">
        <vehicle id="1" x="-0.07" y="0.25" angle="270.00" type="passenger" speed="0.40" pos="0.82" lane=":J7_4_0" slope="0.00"/>
    </timestep>
    <timestep time="6.50">
        <vehicle id="1" x="-0.11" y="0.25" angle="270.00" type="passenger" speed="0.40" pos="0.86" lane=":J7_4_0" slope="0.00"/>
    </timestep>
    <timestep time="6.60">
        <vehicle id="1" x="-0.15" y="0.25" angle="270.00" type="passenger" speed="0.40" pos="0.90" lane=":J7_4_0" slope="0.00"/>
    </timestep>
    <timestep time="6.70">
        <vehicle id="1" x="-0.19" y="0.25" angle="270.00" type="passenger" speed="0.40" pos="0.94" lane=":J7_4_0" slope="0.00"/>
    </timestep>
    <timestep time="6.80">
        <vehicle id="1" x="-0.23" y="0.25" angle="270.00" type="passenger" speed="0.40" pos="0.98" lane=":J7_4_0" slope="0.00"/>
    </timestep>
    <timestep time="6.90">
        <vehicle id="1" x="-0.27" y="0.25" angle="270.00" type="passenger" speed="0.39" pos="1.02" lane=":J7_4_0" slope="0.00"/>
    </timestep>
    <timestep time="7.00">
        <vehicle id="1" x="-0.31" y="0.25" angle="270.00" type="passenger" speed="0.39" pos="1.06" lane=":J7_4_0" slope="0.00"/>
    </timestep>
    <timestep time="7.10">
        <vehicle id="1" x="-0.35" y="0.25" angle="270.00" type="passenger" speed="0.39" pos="1.10" lane=":J7_4_0" slope="0.00"/>
    </timestep>
    <timestep time="7.20">
        <vehicle id="1" x="-0.39" y="0.25" angle="270.00" type="passenger" speed="0.40" pos="1.14" lane=":J7_4_0" slope="0.00"/>
    </timestep>
    <timestep time="7.30">
        <vehicle id="1" x="-0.43" y="0.25" angle="270.00" type="passenger" speed="0.39" pos="1.18" lane=":J7_4_0" slope="0.00"/>
    </timestep>
    <timestep time="7.40">
        <vehicle id="1" x="-0.47" y="0.25" angle="270.00" type="passenger" speed="0.40" pos="1.22" lane=":J7_4_0" slope="0.00"/>
    </timestep>
    <timestep time="7.50">
        <vehicle id="1" x="-0.51" y="0.25" angle="270.00" type="passenger" speed="0.40" pos="1.26" lane=":J7_4_0" slope="0.00"/>
    </timestep>
    <timestep time="7.60">
        <vehicle id="1" x="-0.55" y="0.25" angle="270.00" type="passenger" speed="0.39" pos="1.30" lane=":J7_4_0" slope="0.00"/>
    </timestep>
    <timestep time="7.70">
        <vehicle id="1" x="-0.59" y="0.25" angle="270.00" type="passenger" speed="0.39" pos="1.34" lane=":J7_4_0" slope="0.00"/>
    </timestep>
    <timestep time="7.80">
        <vehicle id="1" x="-0.63" y="0.25" angle="270.00" type="passenger" speed="0.39" pos="1.38" lane=":J7_4_0" slope="0.00"/>
    </timestep>
    <timestep time="7.90">
        <vehicle id="1" x="-0.66" y="0.25" angle="270.00" type="passenger" speed="0.40" pos="1.41" lane=":J7_4_0" slope="0.00"/>
    </timestep>
    <timestep time="8.00">
        <vehicle id="1" x="-0.70" y="0.25" angle="270.00" type="passenger" speed="0.40" pos="1.45" lane=":J7_4_0" slope="0.00"/>
    </timestep>
    <timestep time="8.10">
        <vehicle id="1" x="-0.74" y="0.25" angle="270.00" type="passenger" speed="0.40" pos="1.49" lane=":J7_4_0" slope="0.00"/>
    </timestep>
    <timestep time="8.20">
        <vehicle id="1" x="-0.78" y="0.25" angle="270.00" type="passenger" speed="0.39" pos="0.03" lane="-E3_0" slope="0.00"/>
    </timestep>
    <timestep time="8.30">
        <vehicle id="1" x="-0.82" y="0.25" angle="270.00" type="passenger" speed="0.40" pos="0.07" lane="-E3_0" slope="0.00"/>
    </timestep>
    <timestep time="8.40">
        <vehicle id="1" x="-0.85" y="0.25" angle="270.00" type="passenger" speed="0.39" pos="0.11" lane="-E3_0" slope="0.00"/>
    </timestep>
    <timestep time="8.50">
        <vehicle id="1" x="-0.89" y="0.25" angle="270.00" type="passenger" speed="0.39" pos="0.15" lane="-E3_0" slope="0.00"/>
    </timestep>
    <timestep time="8.60">
        <vehicle id="1" x="-0.93" y="0.25" angle="270.00" type="passenger" speed="0.40" pos="0.19" lane="-E3_0" slope="0.00"/>
    </timestep>
    <timestep time="8.70">
        <vehicle id="1" x="-0.96" y="0.25" angle="270.00" type="passenger" speed="0.39" pos="0.23" lane="-E3_0" slope="0.00"/>
    </timestep>
    <timestep time="8.80">
        <vehicle id="1" x="-1.00" y="0.25" angle="270.00" type="passenger" speed="0.39" pos="0.27" lane="-E3_0" slope="0.00"/>
    </timestep>
    <timestep time="8.90">
        <vehicle id="1" x="-1.04" y="0.25" angle="270.00" type="passenger" speed="0.39" pos="0.31" lane="-E3_0" slope="0.00"/>
    </timestep>
    <timestep time="9.00">
        <vehicle id="1" x="-1.07" y="0.25" angle="270.00" type="passenger" speed="0.39" pos="0.35" lane="-E3_0" slope="0.00"/>
    </timestep>
    <timestep time="9.10">
        <vehicle id="1" x="-1.11" y="0.25" angle="270.00" type="passenger" speed="0.40" pos="0.39" lane="-E3_0" slope="0.00"/>
    </timestep>
    <timestep time="9.20">
        <vehicle id="1" x="-1.15" y="0.25" angle="270.00" type="passenger" speed="0.39" pos="0.43" lane="-E3_0" slope="0.00"/>
    </timestep>
    <timestep time="9.30">
        <vehicle id="1" x="-1.18" y="0.25" angle="270.00" type="passenger" speed="0.39" pos="0.47" lane="-E3_0" slope="0.00"/>
    </timestep>
    <timestep time="9.40">
        <vehicle id="1" x="-1.22" y="0.25" angle="270.00" type="passenger" speed="0.40" pos="0.51" lane="-E3_0" slope="0.00"/>
    </timestep>
    <timestep time="9.50">
        <vehicle id="1" x="-1.26" y="0.25" angle="270.00" type="passenger" speed="0.40" pos="0.55" lane="-E3_0" slope="0.00"/>
    </timestep>
    <timestep time="9.60">
        <vehicle id="1" x="-1.29" y="0.25" angle="270.00" type="passenger" speed="0.40" pos="0.59" lane="-E3_0" slope="0.00"/>
    </timestep>
    <timestep time="9.70">
        <vehicle id="1" x="-1.33" y="0.25" angle="270.00" type="passenger" speed="0.39" pos="0.62" lane="-E3_0" slope="0.00"/>
    </timestep>
    <timestep time="9.80">
        <vehicle id="1" x="-1.36" y="0.25" angle="270.00" type="passenger" speed="0.39" pos="0.66" lane="-E3_0" slope="0.00"/>
    </timestep>
    <timestep time="9.90">
        <vehicle id="1" x="-1.40" y="0.25" angle="270.00" type="passenger" speed="0.39" pos="0.70" lane="-E3_0" slope="0.00"/>
    </timestep>
    <timestep time="10.00">
        <vehicle id="1" x="-1.44" y="0.25" angle="270.00" type="passenger" speed="0.39" pos="0.74" lane="-E3_0" slope="0.00"/>
    </timestep>
    <timestep time="10.10">
        <vehicle id="1" x="-1.47" y="0.25" angle="270.00" type="passenger" speed="0.39" pos="0.78" lane="-E3_0" slope="0.00"/>
    </timestep>
    <timestep time="10.20">
        <vehicle id="1" x="-1.51" y="0.25" angle="270.00" type="passenger" speed="0.40" pos="0.82" lane="-E3_0" slope="0.00"/>
    </timestep>
    <timestep time="10.30">
        <vehicle id="1" x="-1.55" y="0.25" angle="270.00" type="passenger" speed="0.39" pos="0.86" lane="-E3_0" slope="0.00"/>
    </timestep>
    <timestep time="10.40">
        <vehicle id="1" x="-1.58" y="0.25" angle="270.00" type="passenger" speed="0.39" pos="0.90" lane="-E3_0" slope="0.00"/>
    </timestep>
    <timestep time="10.50">
        <vehicle id="1" x="-1.62" y="0.25" angle="270.00" type="passenger" speed="0.40" pos="0.94" lane="-E3_0" slope="0.00"/>
    </timestep>
    <timestep time="10.60">
        <vehicle id="1" x="-1.66" y="0.25" angle="270.00" type="passenger" speed="0.39" pos="0.98" lane="-E3_0" slope="0.00"/>
    </timestep>
    <timestep time="10.70">
        <vehicle id="1" x="-1.69" y="0.25" angle="270.00" type="passenger" speed="0.40" pos="1.02" lane="-E3_0" slope="0.00"/>
    </timestep>
    <timestep time="10.80">
        <vehicle id="1" x="-1.73" y="0.25" angle="270.00" type="passenger" speed="0.39" pos="1.06" lane="-E3_0" slope="0.00"/>
    </timestep>
    <timestep time="10.90">
        <vehicle id="1" x="-1.77" y="0.25" angle="270.00" type="passenger" speed="0.39" pos="1.10" lane="-E3_0" slope="0.00"/>
    </timestep>
    <timestep time="11.00">
        <vehicle id="1" x="-1.80" y="0.25" angle="270.00" type="passenger" speed="0.39" pos="1.14" lane="-E3_0" slope="0.00"/>
    </timestep>
    <timestep time="11.10">
        <vehicle id="1" x="-1.84" y="0.25" angle="270.00" type="passenger" speed="0.39" pos="1.18" lane="-E3_0" slope="0.00"/>
    </timestep>
    <timestep time="11.20">
        <vehicle id="1" x="-1.87" y="0.25" angle="270.00" type="passenger" speed="0.39" pos="1.22" lane="-E3_0" slope="0.00"/>
    </timestep>
    <timestep time="11.30">
        <vehicle id="1" x="-1.91" y="0.25" angle="270.00" type="passenger" speed="0.39" pos="1.26" lane="-E3_0" slope="0.00"/>
    </timestep>
    <timestep time="11.40">
        <vehicle id="1" x="-1.95" y="0.25" angle="270.00" type="passenger" speed="0.39" pos="1.29" lane="-E3_0" slope="0.00"/>
    </timestep>
    <timestep time="11.50">
        <vehicle id="1" x="-1.98" y="0.25" angle="270.00" type="passenger" speed="0.39" pos="1.33" lane="-E3_0" slope="0.00"/>
    </timestep>
    <timestep time="11.60">
        <vehicle id="1" x="-2.02" y="0.25" angle="270.00" type="passenger" speed="0.39" pos="1.37" lane="-E3_0" slope="0.00"/>
    </timestep>
    <timestep time="11.70">
        <vehicle id="1" x="-2.06" y="0.25" angle="270.00" type="passenger" speed="0.40" pos="1.41" lane="-E3_0" slope="0.00"/>
    </timestep>
    <timestep time="11.80">
        <vehicle id="1" x="-2.09" y="0.25" angle="270.00" type="passenger" speed="0.39" pos="1.45" lane="-E3_0" slope="0.00"/>
    </timestep>
    <timestep time="11.90">
        <vehicle id="1" x="-2.13" y="0.25" angle="270.00" type="passenger" speed="0.39" pos="1.49" lane="-E3_0" slope="0.00"/>
    </timestep>
    <timestep time="12.00">
        <vehicle id="1" x="-2.17" y="0.25" angle="270.00" type="passenger" speed="0.40" pos="1.53" lane="-E3_0" slope="0.00"/>
    </timestep>
    <timestep time="12.10">
        <vehicle id="1" x="-2.20" y="0.25" angle="270.00" type="passenger" speed="0.39" pos="1.57" lane="-E3_0" slope="0.00"/>
    </timestep>
    <timestep time="12.20">
        <vehicle id="1" x="-2.24" y="0.25" angle="270.00" type="passenger" speed="0.39" pos="1.61" lane="-E3_0" slope="0.00"/>
    </timestep>
    <timestep time="12.30">
        <vehicle id="1" x="-2.27" y="0.25" angle="270.00" type="passenger" speed="0.39" pos="1.65" lane="-E3_0" slope="0.00"/>
    </timestep>
    <timestep time="12.40">
        <vehicle id="1" x="-2.31" y="0.25" angle="270.00" type="passenger" speed="0.39" pos="1.69" lane="-E3_0" slope="0.00"/>
    </timestep>
    <timestep time="12.50">
        <vehicle id="1" x="-2.35" y="0.25" angle="270.00" type="passenger" speed="0.39" pos="1.73" lane="-E3_0" slope="0.00"/>
    </timestep>
    <timestep time="12.60">
        <vehicle id="1" x="-2.38" y="0.25" angle="270.00" type="passenger" speed="0.40" pos="1.77" lane="-E3_0" slope="0.00"/>
    </timestep>
    <timestep time="12.70">
        <vehicle id="1" x="-2.42" y="0.25" angle="270.00" type="passenger" speed="0.39" pos="1.81" lane="-E3_0" slope="0.00"/>
    </timestep>
    <timestep time="12.80">
        <vehicle id="1" x="-2.46" y="0.25" angle="270.00" type="passenger" speed="0.40" pos="1.85" lane="-E3_0" slope="0.00"/>
    </timestep>
    <timestep time="12.90">
        <vehicle id="1" x="-2.49" y="0.25" angle="270.00" type="passenger" speed="0.40" pos="1.89" lane="-E3_0" slope="0.00"/>
    </timestep>
    <timestep time="13.00">
        <vehicle id="1" x="-2.53" y="0.25" angle="270.00" type="passenger" speed="0.39" pos="1.92" lane="-E3_0" slope="0.00"/>
    </timestep>
    <timestep time="13.10">
        <vehicle id="1" x="-2.57" y="0.25" angle="270.00" type="passenger" speed="0.40" pos="1.96" lane="-E3_0" slope="0.00"/>
    </timestep>
    <timestep time="13.20">
        <vehicle id="1" x="-2.60" y="0.25" angle="270.00" type="passenger" speed="0.39" pos="2.00" lane="-E3_0" slope="0.00"/>
    </timestep>
    <timestep time="13.30">
        <vehicle id="1" x="-2.64" y="0.25" angle="270.00" type="passenger" speed="0.40" pos="2.04" lane="-E3_0" slope="0.00"/>
    </timestep>
    <timestep time="13.40">
        <vehicle id="1" x="-2.68" y="0.25" angle="270.00" type="passenger" speed="0.39" pos="2.08" lane="-E3_0" slope="0.00"/>
    </timestep>
    <timestep time="13.50">
        <vehicle id="1" x="-2.71" y="0.25" angle="270.00" type="passenger" speed="0.40" pos="2.12" lane="-E3_0" slope="0.00"/>
    </timestep>
    <timestep time="13.60">
        <vehicle id="1" x="-2.75" y="0.25" angle="270.00" type="passenger" speed="0.40" pos="2.16" lane="-E3_0" slope="0.00"/>
    </timestep>
    <timestep time="13.70">
        <vehicle id="1" x="-2.79" y="0.25" angle="270.00" type="passenger" speed="0.39" pos="2.20" lane="-E3_0" slope="0.00"/>
    </timestep>
    <timestep time="13.80">
        <vehicle id="1" x="-2.82" y="0.25" angle="270.00" type="passenger" speed="0.39" pos="2.24" lane="-E3_0" slope="0.00"/>
    </timestep>
    <timestep time="13.90">
        <vehicle id="1" x="-2.86" y="0.25" angle="270.00" type="passenger" speed="0.40" pos="2.28" lane="-E3_0" slope="0.00"/>
    </timestep>
    <timestep time="14.00">
        <vehicle id="1" x="-2.90" y="0.25" angle="270.00" type="passenger" speed="0.40" pos="2.32" lane="-E3_0" slope="0.00"/>
    </timestep>
    <timestep time="14.10">
        <vehicle id="1" x="-2.93" y="0.25" angle="270.00" type="passenger" speed="0.39" pos="2.36" lane="-E3_0" slope="0.00"/>
    </timestep>
    <timestep time="14.20">
        <vehicle id="1" x="-2.97" y="0.25" angle="270.00" type="passenger" speed="0.39" pos="2.40" lane="-E3_0" slope="0.00"/>
    </timestep>
    <timestep time="14.30">
        <vehicle id="1" x="-3.01" y="0.25" angle="270.00" type="passenger" speed="0.40" pos="2.44" lane="-E3_0" slope="0.00"/>
    </timestep>
    <timestep time="14.40">
        <vehicle id="1" x="-3.04" y="0.25" angle="270.00" type="passenger" speed="0.39" pos="2.48" lane="-E3_0" slope="0.00"/>
    </timestep>
    <timestep time="14.50">
        <vehicle id="1" x="-3.08" y="0.25" angle="270.00" type="passenger" speed="0.39" pos="2.52" lane="-E3_0" slope="0.00"/>
    </timestep>
    <timestep time="14.60">
        <vehicle id="1" x="-3.11" y="0.25" angle="270.00" type="passenger" speed="0.39" pos="2.56" lane="-E3_0" slope="0.00"/>
    </timestep>
    <timestep time="14.70">
        <vehicle id="1" x="-3.15" y="0.25" angle="270.00" type="passenger" speed="0.40" pos="2.60" lane="-E3_0" slope="0.00"/>
    </timestep>
    <timestep time="14.80">
        <vehicle id="1" x="-3.19" y="0.25" angle="270.00" type="passenger" speed="0.39" pos="2.64" lane="-E3_0" slope="0.00"/>
    </timestep>
    <timestep time="14.90">
        <vehicle id="1" x="-3.22" y="0.25" angle="270.00" type="passenger" speed="0.40" pos="2.67" lane="-E3_0" slope="0.00"/>
    </timestep>
    <timestep time="15.00">
        <vehicle id="1" x="-3.26" y="0.25" angle="270.00" type="passenger" speed="0.40" pos="2.71" lane="-E3_0" slope="0.00"/>
    </timestep>
    <timestep time="15.10">
        <vehicle id="1" x="-3.30" y="0.25" angle="270.00" type="passenger" speed="0.40" pos="2.75" lane="-E3_0" slope="0.00"/>
    </timestep>
    <timestep time="15.20">
        <vehicle id="1" x="-3.33" y="0.25" angle="270.00" type="passenger" speed="0.39" pos="2.79" lane="-E3_0" slope="0.00"/>
    </timestep>
    <timestep time="15.30">
        <vehicle id="1" x="-3.37" y="0.25" angle="270.00" type="passenger" speed="0.39" pos="2.83" lane="-E3_0" slope="0.00"/>
    </timestep>
    <timestep time="15.40">
        <vehicle id="1" x="-3.41" y="0.25" angle="270.00" type="passenger" speed="0.40" pos="2.87" lane="-E3_0" slope="0.00"/>
    </timestep>
    <timestep time="15.50">
        <vehicle id="1" x="-3.44" y="0.25" angle="270.00" type="passenger" speed="0.40" pos="2.91" lane="-E3_0" slope="0.00"/>
    </timestep>
    <timestep time="15.60">
        <vehicle id="1" x="-3.48" y="0.25" angle="270.00" type="passenger" speed="0.39" pos="2.95" lane="-E3_0" slope="0.00"/>
    </timestep>
    <timestep time="15.70">
        <vehicle id="1" x="-3.52" y="0.25" angle="270.00" type="passenger" speed="0.40" pos="2.99" lane="-E3_0" slope="0.00"/>
    </timestep>
    <timestep time="15.80">
        <vehicle id="1" x="-3.55" y="0.25" angle="270.00" type="passenger" speed="0.39" pos="3.03" lane="-E3_0" slope="0.00"/>
    </timestep>
    <timestep time="15.90">
        <vehicle id="1" x="-3.59" y="0.25" angle="270.00" type="passenger" speed="0.39" pos="3.07" lane="-E3_0" slope="0.00"/>
    </timestep>
    <timestep time="16.00">
        <vehicle id="1" x="-3.63" y="0.25" angle="270.00" type="passenger" speed="0.39" pos="3.11" lane="-E3_0" slope="0.00"/>
    </timestep>
    <timestep time="16.10">
        <vehicle id="1" x="-3.66" y="0.25" angle="270.00" type="passenger" speed="0.40" pos="3.15" lane="-E3_0" slope="0.00"/>
    </timestep>
    <timestep time="16.20">
        <vehicle id="1" x="-3.70" y="0.25" angle="270.00" type="passenger" speed="0.39" pos="3.19" lane="-E3_0" slope="0.00"/>
    </timestep>
    <timestep time="16.30">
        <vehicle id="1" x="-3.74" y="0.25" angle="270.00" type="passenger" speed="0.39" pos="3.23" lane="-E3_0" slope="0.00"/>
    </timestep>
    <timestep time="16.40">
        <vehicle id="1" x="-3.77" y="0.25" angle="270.00" type="passenger" speed="0.39" pos="3.27" lane="-E3_0" slope="0.00"/>
    </timestep>
    <timestep time="16.50">
        <vehicle id="1" x="-3.81" y="0.25" angle="270.00" type="passenger" speed="0.39" pos="3.31" lane="-E3_0" slope="0.00"/>
    </timestep>
    <timestep time="16.60">
        <vehicle id="1" x="-3.84" y="0.25" angle="270.00" type="passenger" speed="0.39" pos="3.35" lane="-E3_0" slope="0.00"/>
    </timestep>
    <timestep time="16.70">
        <vehicle id="1" x="-3.88" y="0.25" angle="270.00" type="passenger" speed="0.39" pos="3.38" lane="-E3_0" slope="0.00"/>
    </timestep>
    <timestep time="16.80">
        <vehicle id="1" x="-3.92" y="0.25" angle="270.00" type="passenger" speed="0.40" pos="3.42" lane="-E3_0" slope="0.00"/>
    </timestep>
    <timestep time="16.90">
        <vehicle id="1" x="-3.95" y="0.25" angle="270.00" type="passenger" speed="0.39" pos="3.46" lane="-E3_0" slope="0.00"/>